<LesHouchesEvents version="3.0">
<header>
<!--
#*********************************************************************
#                                                                    *
#                        MadGraph5_aMC@NLO                           *
#                                                                    *
#                           Going Beyond                             *
#                                                                    *
#                   http://madgraph.hep.uiuc.edu                     *
#                   http://madgraph.phys.ucl.ac.be                   *
#                   http://amcatnlo.cern.ch                          *
#                                                                    *
#                     The MadGraph5_aMC@NLO team                     *
#                                                                    *
#....................................................................*
#                                                                    *
# This file contains all the information necessary to reproduce      *
# the events generated:                                              *
#                                                                    *
# 1. software version                                                *
# 2. proc_card          : code generation info including model       *
# 3. param_card         : model primary parameters in the LH format  *
# 4. run_card           : running parameters (collider and cuts)     *
# 5. pythia_card        : present only if pythia has been run        *
# 6. pgs_card           : present only if pgs has been run           *
# 7. delphes_cards      : present only if delphes has been run       *
#                                                                    *
#                                                                    *
#*********************************************************************
-->
<MGVersion>
3.4.1
</MGVersion>
<MG5ProcCard>
<![CDATA[
#************************************************************
#*                     MadGraph5_aMC@NLO                    *
#*                                                          *
#*                *                       *                 *
#*                  *        * *        *                   *
#*                    * * * * 5 * * * *                     *
#*                  *        * *        *                   *
#*                *                       *                 *
#*                                                          *
#*                                                          *
#*         VERSION 3.4.1                 2022-09-01         *
#*                                                          *
#*    The MadGraph5_aMC@NLO Development Team - Find us at   *
#*    https://server06.fynu.ucl.ac.be/projects/madgraph     *
#*                                                          *
#************************************************************
#*                                                          *
#*               Command File for MadGraph5_aMC@NLO         *
#*                                                          *
#*     run as ./bin/mg5_aMC  filename                       *
#*                                                          *
#************************************************************
set group_subprocesses Auto
set ignore_six_quark_processes False
set low_mem_multicore_nlo_generation False
set complex_mass_scheme False
set include_lepton_initiated_processes False
set gauge unitary
set loop_optimized_output True
set loop_color_flows False
set max_npoint_for_channel 0
set default_unset_couplings 99
set max_t_for_channel 99
set zerowidth_tchannel True
set nlo_mixed_expansion True
import model sm
define p = g u c d s u~ c~ d~ s~
define j = g u c d s u~ c~ d~ s~
define l+ = e+ mu+
define l- = e- mu-
define vl = ve vm vt
define vl~ = ve~ vm~ vt~
set auto_convert_model T
import model heft
generate p p > h
output ggh
]]>
</MG5ProcCard>
<MGProcCard>
#*********************************************************************
#                        MadGraph/MadEvent                           *
#                   http://madgraph.hep.uiuc.edu                     *
#                                                                    *
#                          proc_card.dat                             *
#*********************************************************************
#                                                                    *
#            This Files is generated by MADGRAPH 5                   *
#                                                                    *
# WARNING: This Files is generated for MADEVENT (compatibility issue)*
#          This files is NOT a valid MG4 proc_card.dat               *
#          Running this in MG4 will NEVER reproduce the result of MG5*
#                                                                    *
#*********************************************************************
#*********************************************************************
# Process(es) requested : mg2 input                                  *
#*********************************************************************
# Begin PROCESS # This is TAG. Do not modify this line
p p > h           #Process
# Be carefull the coupling are here in MG5 convention
          
end_coup           # End the couplings input

done               # this tells MG there are no more procs
# End PROCESS  # This is TAG. Do not modify this line
#*********************************************************************
# Model information                                                  *
#*********************************************************************
# Begin MODEL  # This is TAG. Do not modify this line
heft
# End   MODEL  # This is TAG. Do not modify this line
#*********************************************************************
# Start multiparticle definitions                                    *
#*********************************************************************
# Begin MULTIPARTICLES # This is TAG. Do not modify this line

# End  MULTIPARTICLES # This is TAG. Do not modify this line
</MGProcCard>
<MGRunCard>
<![CDATA[
#*********************************************************************
#                       MadGraph5_aMC@NLO                            *
#                                                                    *
#                     run_card.dat MadEvent                          *
#                                                                    *
#  This file is used to set the parameters of the run.               *
#                                                                    *
#  Some notation/conventions:                                        *
#                                                                    *
#   Lines starting with a '# ' are info or comments                  *
#                                                                    *
#   mind the format:   value    = variable     ! comment             *
#                                                                    *
#   To display more options, you can type the command:               *
#      update to_full                                                *
#*********************************************************************
#                                                                    
#*********************************************************************
# Tag name for the run (one word)                                    *
#*********************************************************************
  tag_1     = run_tag ! name of the run 
#*********************************************************************
# Number of events and rnd seed                                      *
# Warning: Do not generate more than 1M events in a single run       *
#*********************************************************************
  1000 = nevents ! Number of unweighted events requested 
 21 = iseed   ! rnd seed (0=assigned automatically=default))
#*********************************************************************
# Collider type and energy                                           *
# lpp: 0=No PDF, 1=proton, -1=antiproton, 2=elastic photon of proton,*
#             +/-3=PDF of electron/positron beam                     *
#             +/-4=PDF of muon/antimuon beam                         *
#*********************************************************************
     1        = lpp1    ! beam 1 type 
     1        = lpp2    ! beam 2 type
     6500.0     = ebeam1  ! beam 1 total energy in GeV
     6500.0     = ebeam2  ! beam 2 total energy in GeV
# To see polarised beam options: type "update beam_pol"

#*********************************************************************
# PDF CHOICE: this automatically fixes alpha_s and its evol.         *
# pdlabel: lhapdf=LHAPDF (installation needed) [1412.7420]           *
#          iww=Improved Weizsaecker-Williams Approx.[hep-ph/9310350] *
#          eva=Effective W/Z/A Approx.       [21yy.zzzzz]            *
#          none=No PDF, same as lhapdf with lppx=0                   *
#*********************************************************************
     nn23lo1    = pdlabel     ! PDF set 
     230000    = lhaid     ! if pdlabel=lhapdf, this is the lhapdf number
# To see heavy ion options: type "update ion_pdf"
#*********************************************************************
# Renormalization and factorization scales                           *
#*********************************************************************
 False = fixed_ren_scale  ! if .true. use fixed ren scale
     False = fixed_fac_scale  ! if .true. use fixed fac scale
 91.188  = scale            ! fixed ren scale
 91.188  = dsqrt_q2fact1    ! fixed fact scale for pdf1
 91.188  = dsqrt_q2fact2    ! fixed fact scale for pdf2
 -1 = dynamical_scale_choice ! Choose one of the preselected dynamical choices
 1.0  = scalefact        ! scale factor for event-by-event scales

 
#*********************************************************************
# Type and output format
#*********************************************************************
  False     = gridpack  !True = setting up the grid pack
  -1.0 = time_of_flight ! threshold (in mm) below which the invariant livetime is not written (-1 means not written)
  average =  event_norm       ! average/sum. Normalization of the weight in the LHEF
# To see MLM/CKKW  merging options: type "update MLM" or "update CKKW"

#*********************************************************************
#
#*********************************************************************
# Phase-Space Optimization strategy (basic options)
#*********************************************************************
   0  = nhel          ! using helicities importance sampling or not.
                             ! 0: sum over helicity, 1: importance sampling
   2  = sde_strategy  ! default integration strategy (hep-ph/2021.00773)
                             ! 1 is old strategy (using amp square)
			     ! 2 is new strategy (using only the denominator)
# To see advanced option for Phase-Space optimization: type "update psoptim"			     
#*********************************************************************
# Generation bias, check the wiki page below for more information:   *
#  'cp3.irmp.ucl.ac.be/projects/madgraph/wiki/LOEventGenerationBias' *
#*********************************************************************
 None = bias_module  ! Bias type of bias, [None, ptj_bias, -custom_folder-]
 {} = bias_parameters ! Specifies the parameters of the module.
#
#*******************************                                                 
# Parton level cuts definition *
#*******************************
  0.0  = dsqrt_shat ! minimal shat for full process
#                                                                    
#
#*********************************************************************
# BW cutoff (M+/-bwcutoff*Gamma) ! Define on/off-shell for "$" and decay  
#*********************************************************************
  15.0  = bwcutoff      ! (M+/-bwcutoff*Gamma)
#*********************************************************************
# Standard Cuts                                                      *
#*********************************************************************
# Minimum and maximum pt's (for max, -1 means no cut)                *
#*********************************************************************
 {} = pt_min_pdg ! pt cut for other particles (use pdg code). Applied on particle and anti-particle
 {}	= pt_max_pdg ! pt cut for other particles (syntax e.g. {6: 100, 25: 50}) 
#
# For display option for energy cut in the partonic center of mass frame type 'update ecut'
#
#*********************************************************************
# Maximum and minimum absolute rapidity (for max, -1 means no cut)   *
#*********************************************************************
 {} = eta_min_pdg ! rap cut for other particles (use pdg code). Applied on particle and anti-particle
 {} = eta_max_pdg ! rap cut for other particles (syntax e.g. {6: 2.5, 23: 5})
#*********************************************************************
# Minimum and maximum DeltaR distance                                *
#*********************************************************************
#*********************************************************************
# Minimum and maximum invariant mass for pairs                       *
#*********************************************************************
 {} = mxx_min_pdg ! min invariant mass of a pair of particles X/X~ (e.g. {6:250})
 {'default': False} = mxx_only_part_antipart ! if True the invariant mass is applied only 
                       ! to pairs of particle/antiparticle and not to pairs of the same pdg codes.  
#*********************************************************************
# Inclusive cuts                                                     *
#*********************************************************************
 0.0  = ptheavy   ! minimum pt for at least one heavy final state
#*********************************************************************
# maximal pdg code for quark to be considered as a light jet         *
# (otherwise b cuts are applied)                                     *
#*********************************************************************
 4 = maxjetflavor    ! Maximum jet pdg code
#*********************************************************************
#
#*********************************************************************
# Store info for systematics studies                                 *
# WARNING: Do not use for interference type of computation           *
#*********************************************************************
   True  = use_syst      ! Enable systematics studies
#
systematics = systematics_program ! none, systematics [python], SysCalc [depreceted, C++]
['--mur=0.5,1,2', '--muf=0.5,1,2', '--pdf=errorset'] = systematics_arguments ! see: https://cp3.irmp.ucl.ac.be/projects/madgraph/wiki/Systematics#Systematicspythonmodule
]]>
</MGRunCard>
<slha>
######################################################################
## PARAM_CARD AUTOMATICALY GENERATED BY MG5                       ####
######################################################################
###################################
## INFORMATION FOR MASS
###################################
BLOCK MASS # 
      5 4.700000e+00 # mb
      6 1.730000e+02 # mt
      15 1.777000e+00 # mta
      23 9.118800e+01 # mz
      25 1.250000e+02 # mh
      9000006 1.250001e+02 # mp
      1 0.000000e+00 # d : 0.0
      2 0.000000e+00 # u : 0.0
      3 0.000000e+00 # s : 0.0
      4 0.000000e+00 # c : 0.0
      11 0.000000e+00 # e- : 0.0
      12 0.000000e+00 # ve : 0.0
      13 0.000000e+00 # mu- : 0.0
      14 0.000000e+00 # vm : 0.0
      16 0.000000e+00 # vt : 0.0
      21 0.000000e+00 # g : 0.0
      22 0.000000e+00 # a : 0.0
      24 8.041900e+01 # w+ : cmath.sqrt(mz__exp__2/2. + cmath.sqrt(mz__exp__4/4. - (aew*cmath.pi*mz__exp__2)/(gf*sqrt__2)))
###################################
## INFORMATION FOR SMINPUTS
###################################
BLOCK SMINPUTS # 
      1 1.325070e+02 # aewm1
      2 1.166390e-05 # gf
      3 1.300000e-01 # as (note that parameter not used if you use a pdf set)
###################################
## INFORMATION FOR YUKAWA
###################################
BLOCK YUKAWA # 
      5 4.200000e+00 # ymb
      6 1.645000e+02 # ymt
      15 1.777000e+00 # ymtau
###################################
## INFORMATION FOR DECAY
###################################
DECAY 6 1.491500e+00 # wt
DECAY 23 2.441404e+00 # wz
DECAY 24 2.047600e+00 # ww
DECAY 25 6.382339e-03 # wh
DECAY 9000006 6.382339e-03 # wh1
DECAY 1 0.000000e+00 # d : 0.0
DECAY 2 0.000000e+00 # u : 0.0
DECAY 3 0.000000e+00 # s : 0.0
DECAY 4 0.000000e+00 # c : 0.0
DECAY 5 0.000000e+00 # b : 0.0
DECAY 11 0.000000e+00 # e- : 0.0
DECAY 12 0.000000e+00 # ve : 0.0
DECAY 13 0.000000e+00 # mu- : 0.0
DECAY 14 0.000000e+00 # vm : 0.0
DECAY 15 0.000000e+00 # ta- : 0.0
DECAY 16 0.000000e+00 # vt : 0.0
DECAY 21 0.000000e+00 # g : 0.0
DECAY 22 0.000000e+00 # a : 0.0
###################################
## INFORMATION FOR QNUMBERS 9000006
###################################
BLOCK QNUMBERS 9000006 #  h1
      1 0 # 3 times electric charge
      2 1 # number of spin states (2s+1)
      3 1 # colour rep (1: singlet, 3: triplet, 8: octet)
      4 0 # particle/antiparticle distinction (0=own anti)
</slha>
<MGGenerationInfo>
#  Number of Events        :       1000
#  Integrated weight (pb)  :       17.592
</MGGenerationInfo>
</header>
<init>
2212 2212 6.500000e+03 6.500000e+03 0 0 247000 247000 -4 1
1.759200e+01 3.954300e-02 1.759200e+01 1
<generator name='MadGraph5_aMC@NLO' version='3.4.1'>please cite 1405.0301 </generator>
</init>
<event>
 3      1 +1.7592000e+01 1.25000000e+02 7.54677100e-03 1.23506900e-01
       21 -1    0    0  502  501 +0.0000000000e+00 +0.0000000000e+00 +7.7359568323e+00 7.7359568323e+00 0.0000000000e+00 0.0000e+00 -1.0000e+00
       21 -1    0    0  501  502 -0.0000000000e+00 -0.0000000000e+00 -5.0494723338e+02 5.0494723338e+02 0.0000000000e+00 0.0000e+00 -1.0000e+00
       25  1    1    2    0    0 +0.0000000000e+00 +0.0000000000e+00 -4.9721127655e+02 5.1268319021e+02 1.2500000000e+02 0.0000e+00 0.0000e+00
<mgrwt>
<rscale>  0 0.12500000E+03</rscale>
<asrwt>0</asrwt>
<pdfrwt beam="1">  1       21 0.11901469E-02 0.12500000E+03</pdfrwt>
<pdfrwt beam="2">  1       21 0.77684209E-01 0.12500000E+03</pdfrwt>
<totfact> 0.41364475E+06</totfact>
</mgrwt>
</event>
<event>
 3      1 +1.7592000e+01 1.25000000e+02 7.54677100e-03 1.23506900e-01
       21 -1    0    0  502  501 +0.0000000000e+00 +0.0000000000e+00 +3.7367271022e+01 3.7367271022e+01 0.0000000000e+00 0.0000e+00 1.0000e+00
       21 -1    0    0  501  502 -0.0000000000e+00 -0.0000000000e+00 -1.0453666787e+02 1.0453666787e+02 0.0000000000e+00 0.0000e+00 1.0000e+00
       25  1    1    2    0    0 +0.0000000000e+00 +0.0000000000e+00 -6.7169396847e+01 1.4190393889e+02 1.2500000000e+02 0.0000e+00 0.0000e+00
<mgrwt>
<rscale>  0 0.12500000E+03</rscale>
<asrwt>0</asrwt>
<pdfrwt beam="1">  1       21 0.57488110E-02 0.12500000E+03</pdfrwt>
<pdfrwt beam="2">  1       21 0.16082564E-01 0.12500000E+03</pdfrwt>
<totfact> 0.71791718E+06</totfact>
</mgrwt>
</event>
<event>
 3      1 +1.7592000e+01 1.25000000e+02 7.54677100e-03 1.23506900e-01
       21 -1    0    0  502  501 +0.0000000000e+00 +0.0000000000e+00 +2.4086447373e+00 2.4086447373e+00 0.0000000000e+00 0.0000e+00 -1.0000e+00
       21 -1    0    0  501  502 -0.0000000000e+00 -0.0000000000e+00 -1.6217626201e+03 1.6217626201e+03 0.0000000000e+00 0.0000e+00 -1.0000e+00
       25  1    1    2    0    0 +0.0000000000e+00 +0.0000000000e+00 -1.6193539754e+03 1.6241712648e+03 1.2500000000e+02 0.0000e+00 0.0000e+00
<mgrwt>
<rscale>  0 0.12500000E+03</rscale>
<asrwt>0</asrwt>
<pdfrwt beam="1">  1       21 0.37055872E-03 0.12500000E+03</pdfrwt>
<pdfrwt beam="2">  1       21 0.24950330E+00 0.12500000E+03</pdfrwt>
<totfact> 0.12248305E+06</totfact>
</mgrwt>
</event>
<event>
 3      1 +1.7592000e+01 1.25000000e+02 7.54677100e-03 1.23506900e-01
       21 -1    0    0  502  501 +0.0000000000e+00 +0.0000000000e+00 +4.2929298453e+02 4.2929298453e+02 0.0000000000e+00 0.0000e+00 -1.0000e+00
       21 -1    0    0  501  502 -0.0000000000e+00 -0.0000000000e+00 -9.0992635351e+00 9.0992635351e+00 0.0000000000e+00 0.0000e+00 -1.0000e+00
       25  1    1    2    0    0 +0.0000000000e+00 +0.0000000000e+00 +4.2019372100e+02 4.3839224807e+02 1.2500000000e+02 0.0000e+00 0.0000e+00
<mgrwt>
<rscale>  0 0.12500000E+03</rscale>
<asrwt>0</asrwt>
<pdfrwt beam="1">  1       21 0.66045059E-01 0.12500000E+03</pdfrwt>
<pdfrwt beam="2">  1       21 0.13998870E-02 0.12500000E+03</pdfrwt>
<totfact> 0.45594899E+06</totfact>
</mgrwt>
</event>
<event>
 3      1 +1.7592000e+01 1.25000000e+02 7.54677100e-03 1.23506900e-01
       21 -1    0    0  502  501 +0.0000000000e+00 +0.0000000000e+00 +6.3950761307e+00 6.3950761307e+00 0.0000000000e+00 0.0000e+00 -1.0000e+00
       21 -1    0    0  501  502 -0.0000000000e+00 -0.0000000000e+00 -6.1082150082e+02 6.1082150082e+02 0.0000000000e+00 0.0000e+00 -1.0000e+00
       25  1    1    2    0    0 +0.0000000000e+00 +0.0000000000e+00 -6.0442642469e+02 6.1721657695e+02 1.2500000000e+02 0.0000e+00 0.0000e+00
<mgrwt>
<rscale>  0 0.12500000E+03</rscale>
<asrwt>0</asrwt>
<pdfrwt beam="1">  1       21 0.98385759E-03 0.12500000E+03</pdfrwt>
<pdfrwt beam="2">  1       21 0.93972565E-01 0.12500000E+03</pdfrwt>
<totfact> 0.36325421E+06</totfact>
</mgrwt>
</event>
<event>
 3      1 +1.7592000e+01 1.25000000e+02 7.54677100e-03 1.23506900e-01
       21 -1    0    0  502  501 +0.0000000000e+00 +0.0000000000e+00 +2.7565481044e+01 2.7565481044e+01 0.0000000000e+00 0.0000e+00 1.0000e+00
       21 -1    0    0  501  502 -0.0000000000e+00 -0.0000000000e+00 -1.4170802947e+02 1.4170802947e+02 0.0000000000e+00 0.0000e+00 1.0000e+00
       25  1    1    2    0    0 +0.0000000000e+00 +0.0000000000e+00 -1.1414254842e+02 1.6927351051e+02 1.2500000000e+02 0.0000e+00 0.0000e+00
<mgrwt>
<rscale>  0 0.12500000E+03</rscale>
<asrwt>0</asrwt>
<pdfrwt beam="1">  1       21 0.42408432E-02 0.12500000E+03</pdfrwt>
<pdfrwt beam="2">  1       21 0.21801236E-01 0.12500000E+03</pdfrwt>
<totfact> 0.68403751E+06</totfact>
</mgrwt>
</event>
<event>
 3      1 +1.7592000e+01 1.25000000e+02 7.54677100e-03 1.23506900e-01
       21 -1    0    0  502  501 +0.0000000000e+00 +0.0000000000e+00 +3.6233529082e+00 3.6233529082e+00 0.0000000000e+00 0.0000e+00 -1.0000e+00
       21 -1    0    0  501  502 -0.0000000000e+00 -0.0000000000e+00 -1.0780760525e+03 1.0780760525e+03 0.0000000000e+00 0.0000e+00 -1.0000e+00
       25  1    1    2    0    0 +0.0000000000e+00 +0.0000000000e+00 -1.0744526996e+03 1.0816994054e+03 1.2500000000e+02 0.0000e+00 0.0000e+00
<mgrwt>
<rscale>  0 0.12500000E+03</rscale>
<asrwt>0</asrwt>
<pdfrwt beam="1">  1       21 0.55743911E-03 0.12500000E+03</pdfrwt>
<pdfrwt beam="2">  1       21 0.16585779E+00 0.12500000E+03</pdfrwt>
<totfact> 0.21663075E+06</totfact>
</mgrwt>
</event>
<event>
 3      1 +1.7592000e+01 1.25000000e+02 7.54677100e-03 1.23506900e-01
       21 -1    0    0  502  501 +0.0000000000e+00 +0.0000000000e+00 +1.3563210118e+01 1.3563210118e+01 0.0000000000e+00 0.0000e+00 1.0000e+00
       21 -1    0    0  501  502 -0.0000000000e+00 -0.0000000000e+00 -2.8800335362e+02 2.8800335362e+02 0.0000000000e+00 0.0000e+00 1.0000e+00
       25  1    1    2    0    0 +0.0000000000e+00 +0.0000000000e+00 -2.7444014350e+02 3.0156656374e+02 1.2500000000e+02 0.0000e+00 0.0000e+00
<mgrwt>
<rscale>  0 0.12500000E+03</rscale>
<asrwt>0</asrwt>
<pdfrwt beam="1">  1       21 0.20866477E-02 0.12500000E+03</pdfrwt>
<pdfrwt beam="2">  1       21 0.44308209E-01 0.12500000E+03</pdfrwt>
<totfact> 0.55326236E+06</totfact>
</mgrwt>
</event>
<event>
 3      1 +1.7592000e+01 1.25000000e+02 7.54677100e-03 1.23506900e-01
       21 -1    0    0  502  501 +0.0000000000e+00 +0.0000000000e+00 +1.4945098976e+01 1.4945098976e+01 0.0000000000e+00 0.0000e+00 -1.0000e+00
       21 -1    0    0  501  502 -0.0000000000e+00 -0.0000000000e+00 -2.6137331082e+02 2.6137331082e+02 0.0000000000e+00 0.0000e+00 -1.0000e+00
       25  1    1    2    0    0 +0.0000000000e+00 +0.0000000000e+00 -2.4642821185e+02 2.7631840980e+02 1.2500000000e+02 0.0000e+00 0.0000e+00
<mgrwt>
<rscale>  0 0.12500000E+03</rscale>
<asrwt>0</asrwt>
<pdfrwt beam="1">  1       21 0.22992462E-02 0.12500000E+03</pdfrwt>
<pdfrwt beam="2">  1       21 0.40211275E-01 0.12500000E+03</pdfrwt>
<totfact> 0.57483476E+06</totfact>
</mgrwt>
</event>
<event>
 3      1 +1.7592000e+01 1.25000000e+02 7.54677100e-03 1.23506900e-01
       21 -1    0    0  502  501 +0.0000000000e+00 +0.0000000000e+00 +3.5667650612e+01 3.5667650612e+01 0.0000000000e+00 0.0000e+00 -1.0000e+00
       21 -1    0    0  501  502 -0.0000000000e+00 -0.0000000000e+00 -1.0951800674e+02 1.0951800674e+02 0.0000000000e+00 0.0000e+00 -1.0000e+00
       25  1    1    2    0    0 +0.0000000000e+00 +0.0000000000e+00 -7.3850356124e+01 1.4518565735e+02 1.2500000000e+02 0.0000e+00 0.0000e+00
<mgrwt>
<rscale>  0 0.12500000E+03</rscale>
<asrwt>0</asrwt>
<pdfrwt beam="1">  1       21 0.54873309E-02 0.12500000E+03</pdfrwt>
<pdfrwt beam="2">  1       21 0.16848924E-01 0.12500000E+03</pdfrwt>
<totfact> 0.71369348E+06</totfact>
</mgrwt>
</event>
<event>
 3      1 +1.7592000e+01 1.25000000e+02 7.54677100e-03 1.23506900e-01
       21 -1    0    0  502  501 +0.0000000000e+00 +0.0000000000e+00 +4.6998716649e+00 4.6998716649e+00 0.0000000000e+00 0.0000e+00 1.0000e+00
       21 -1    0    0  501  502 -0.0000000000e+00 -0.0000000000e+00 -8.3113971584e+02 8.3113971584e+02 0.0000000000e+00 0.0000e+00 1.0000e+00
       25  1    1    2    0    0 +0.0000000000e+00 +0.0000000000e+00 -8.2643984417e+02 8.3583958750e+02 1.2500000000e+02 0.0000e+00 0.0000e+00
<mgrwt>
<rscale>  0 0.12500000E+03</rscale>
<asrwt>0</asrwt>
<pdfrwt beam="1">  1       21 0.72305713E-03 0.12500000E+03</pdfrwt>
<pdfrwt beam="2">  1       21 0.12786766E+00 0.12500000E+03</pdfrwt>
<totfact> 0.28209284E+06</totfact>
</mgrwt>
</event>
<event>
 3      1 +1.7592000e+01 1.25000000e+02 7.54677100e-03 1.23506900e-01
       21 -1    0    0  502  501 +0.0000000000e+00 +0.0000000000e+00 +7.6623932848e+00 7.6623932848e+00 0.0000000000e+00 0.0000e+00 1.0000e+00
       21 -1    0    0  501  502 -0.0000000000e+00 -0.0000000000e+00 -5.0979502811e+02 5.0979502811e+02 0.0000000000e+00 0.0000e+00 1.0000e+00
       25  1    1    2    0    0 +0.0000000000e+00 +0.0000000000e+00 -5.0213263483e+02 5.1745742140e+02 1.2500000000e+02 0.0000e+00 0.0000e+00
<mgrwt>
<rscale>  0 0.12500000E+03</rscale>
<asrwt>0</asrwt>
<pdfrwt beam="1">  1       21 0.11788299E-02 0.12500000E+03</pdfrwt>
<pdfrwt beam="2">  1       21 0.78429995E-01 0.12500000E+03</pdfrwt>
<totfact> 0.41112873E+06</totfact>
</mgrwt>
</event>
<event>
 3      1 +1.7592000e+01 1.25000000e+02 7.54677100e-03 1.23506900e-01
       21 -1    0    0  502  501 +0.0000000000e+00 +0.0000000000e+00 +7.8496158301e+01 7.8496158301e+01 0.0000000000e+00 0.0000e+00 1.0000e+00
       21 -1    0    0  501  502 -0.0000000000e+00 -0.0000000000e+00 -4.9763581869e+01 4.9763581869e+01 0.0000000000e+00 0.0000e+00 1.0000e+00
       25  1    1    2    0    0 +0.0000000000e+00 +0.0000000000e+00 +2.8732576433e+01 1.2825974017e+02 1.2500000000e+02 0.0000e+00 0.0000e+00
<mgrwt>
<rscale>  0 0.12500000E+03</rscale>
<asrwt>0</asrwt>
<pdfrwt beam="1">  1       21 0.12076332E-01 0.12500000E+03</pdfrwt>
<pdfrwt beam="2">  1       21 0.76559356E-02 0.12500000E+03</pdfrwt>
<totfact> 0.73598501E+06</totfact>
</mgrwt>
</event>
<event>
 3      1 +1.7592000e+01 1.25000000e+02 7.54677100e-03 1.23506900e-01
       21 -1    0    0  502  501 +0.0000000000e+00 +0.0000000000e+00 +1.1324748065e+02 1.1324748065e+02 0.0000000000e+00 0.0000e+00 1.0000e+00
       21 -1    0    0  501  502 -0.0000000000e+00 -0.0000000000e+00 -3.4493041059e+01 3.4493041059e+01 0.0000000000e+00 0.0000e+00 1.0000e+00
       25  1    1    2    0    0 +0.0000000000e+00 +0.0000000000e+00 +7.8754439594e+01 1.4774052171e+02 1.2500000000e+02 0.0000e+00 0.0000e+00
<mgrwt>
<rscale>  0 0.12500000E+03</rscale>
<asrwt>0</asrwt>
<pdfrwt beam="1">  1       21 0.17422689E-01 0.12500000E+03</pdfrwt>
<pdfrwt beam="2">  1       21 0.53066218E-02 0.12500000E+03</pdfrwt>
<totfact> 0.71044199E+06</totfact>
</mgrwt>
</event>
<event>
 3      1 +1.7592000e+01 1.25000000e+02 7.54677100e-03 1.23506900e-01
       21 -1    0    0  502  501 +0.0000000000e+00 +0.0000000000e+00 +7.4957103156e+01 7.4957103156e+01 0.0000000000e+00 0.0000e+00 1.0000e+00
       21 -1    0    0  501  502 -0.0000000000e+00 -0.0000000000e+00 -5.2113139857e+01 5.2113139857e+01 0.0000000000e+00 0.0000e+00 1.0000e+00
       25  1    1    2    0    0 +0.0000000000e+00 +0.0000000000e+00 +2.2843963299e+01 1.2707024301e+02 1.2500000000e+02 0.0000e+00 0.0000e+00
<mgrwt>
<rscale>  0 0.12500000E+03</rscale>
<asrwt>0</asrwt>
<pdfrwt beam="1">  1       21 0.11531862E-01 0.12500000E+03</pdfrwt>
<pdfrwt beam="2">  1       21 0.80174061E-02 0.12500000E+03</pdfrwt>
<totfact> 0.73759577E+06</totfact>
</mgrwt>
</event>
<event>
 3      1 +1.7592000e+01 1.25000000e+02 7.54677100e-03 1.23506900e-01
       21 -1    0    0  502  501 +0.0000000000e+00 +0.0000000000e+00 +1.0426647327e+02 1.0426647327e+02 0.0000000000e+00 0.0000e+00 -1.0000e+00
       21 -1    0    0  501  502 -0.0000000000e+00 -0.0000000000e+00 -3.7464104017e+01 3.7464104017e+01 0.0000000000e+00 0.0000e+00 -1.0000e+00
       25  1    1    2    0    0 +0.0000000000e+00 +0.0000000000e+00 +6.6802369253e+01 1.4173057729e+02 1.2500000000e+02 0.0000e+00 0.0000e+00
<mgrwt>
<rscale>  0 0.12500000E+03</rscale>
<asrwt>0</asrwt>
<pdfrwt beam="1">  1       21 0.16040996E-01 0.12500000E+03</pdfrwt>
<pdfrwt beam="2">  1       21 0.57637083E-02 0.12500000E+03</pdfrwt>
<totfact> 0.71814183E+06</totfact>
</mgrwt>
</event>
<event>
 3      1 +1.7592000e+01 1.25000000e+02 7.54677100e-03 1.23506900e-01
       21 -1    0    0  502  501 +0.0000000000e+00 +0.0000000000e+00 +4.3600625404e+02 4.3600625404e+02 0.0000000000e+00 0.0000e+00 -1.0000e+00
       21 -1    0    0  501  502 -0.0000000000e+00 -0.0000000000e+00 -8.9591604794e+00 8.9591604794e+00 0.0000000000e+00 0.0000e+00 -1.0000e+00
       25  1    1    2    0    0 +0.0000000000e+00 +0.0000000000e+00 +4.2704709356e+02 4.4496541452e+02 1.2500000000e+02 0.0000e+00 0.0000e+00
<mgrwt>
<rscale>  0 0.12500000E+03</rscale>
<asrwt>0</asrwt>
<pdfrwt beam="1">  1       21 0.67077869E-01 0.12500000E+03</pdfrwt>
<pdfrwt beam="2">  1       21 0.13783327E-02 0.12500000E+03</pdfrwt>
<totfact> 0.45195073E+06</totfact>
</mgrwt>
</event>
<event>
 3      1 +1.7592000e+01 1.25000000e+02 7.54677100e-03 1.23506900e-01
       21 -1    0    0  502  501 +0.0000000000e+00 +0.0000000000e+00 +1.2132170803e+02 1.2132170803e+02 0.0000000000e+00 0.0000e+00 -1.0000e+00
       21 -1    0    0  501  502 -0.0000000000e+00 -0.0000000000e+00 -3.2197453064e+01 3.2197453064e+01 0.0000000000e+00 0.0000e+00 -1.0000e+00
       25  1    1    2    0    0 +0.0000000000e+00 +0.0000000000e+00 +8.9124254969e+01 1.5351916110e+02 1.2500000000e+02 0.0000e+00 0.0000e+00
<mgrwt>
<rscale>  0 0.12500000E+03</rscale>
<asrwt>0</asrwt>
<pdfrwt beam="1">  1       21 0.18664878E-01 0.12500000E+03</pdfrwt>
<pdfrwt beam="2">  1       21 0.49534544E-02 0.12500000E+03</pdfrwt>
<totfact> 0.70319879E+06</totfact>
</mgrwt>
</event>
<event>
 3      1 +1.7592000e+01 1.25000000e+02 7.54677100e-03 1.23506900e-01
       21 -1    0    0  502  501 +0.0000000000e+00 +0.0000000000e+00 +1.6993648526e+03 1.6993648526e+03 0.0000000000e+00 0.0000e+00 -1.0000e+00
       21 -1    0    0  501  502 -0.0000000000e+00 -0.0000000000e+00 -2.2986529315e+00 2.2986529315e+00 0.0000000000e+00 0.0000e+00 -1.0000e+00
       25  1    1    2    0    0 +0.0000000000e+00 +0.0000000000e+00 +1.6970661996e+03 1.7016635055e+03 1.2500000000e+02 0.0000e+00 0.0000e+00
<mgrwt>
<rscale>  0 0.12500000E+03</rscale>
<asrwt>0</asrwt>
<pdfrwt beam="1">  1       21 0.26143974E+00 0.12500000E+03</pdfrwt>
<pdfrwt beam="2">  1       21 0.35364027E-03 0.12500000E+03</pdfrwt>
<totfact> 0.11249043E+06</totfact>
</mgrwt>
</event>
<event>
 3      1 +1.7592000e+01 1.25000000e+02 7.54677100e-03 1.23506900e-01
       21 -1    0    0  502  501 +0.0000000000e+00 +0.0000000000e+00 +6.2475466467e+01 6.2475466467e+01 0.0000000000e+00 0.0000e+00 -1.0000e+00
       21 -1    0    0  501  502 -0.0000000000e+00 -0.0000000000e+00 -6.2524543167e+01 6.2524543167e+01 0.0000000000e+00 0.0000e+00 -1.0000e+00
       25  1    1    2    0    0 +0.0000000000e+00 +0.0000000000e+00 -4.9076699696e-02 1.2500000963e+02 1.2500000000e+02 0.0000e+00 0.0000e+00
<mgrwt>
<rscale>  0 0.12500000E+03</rscale>
<asrwt>0</asrwt>
<pdfrwt beam="1">  1       21 0.96116102E-02 0.12500000E+03</pdfrwt>
<pdfrwt beam="2">  1       21 0.96191605E-02 0.12500000E+03</pdfrwt>
<totfact> 0.74043580E+06</totfact>
</mgrwt>
</event>
<event>
 3      1 +1.7592000e+01 1.25000000e+02 7.54677100e-03 1.23506900e-01
       21 -1    0    0  502  501 +0.0000000000e+00 +0.0000000000e+00 +1.1506736078e+01 1.1506736078e+01 0.0000000000e+00 0.0000e+00 1.0000e+00
       21 -1    0    0  501  502 -0.0000000000e+00 -0.0000000000e+00 -3.3947506692e+02 3.3947506692e+02 0.0000000000e+00 0.0000e+00 1.0000e+00
       25  1    1    2    0    0 +0.0000000000e+00 +0.0000000000e+00 -3.2796833085e+02 3.5098180300e+02 1.2500000000e+02 0.0000e+00 0.0000e+00
<mgrwt>
<rscale>  0 0.12500000E+03</rscale>
<asrwt>0</asrwt>
<pdfrwt beam="1">  1       21 0.17702672E-02 0.12500000E+03</pdfrwt>
<pdfrwt beam="2">  1       21 0.52226930E-01 0.12500000E+03</pdfrwt>
<totfact> 0.51466006E+06</totfact>
</mgrwt>
</event>
<event>
 3      1 +1.7592000e+01 1.25000000e+02 7.54677100e-03 1.23506900e-01
       21 -1    0    0  502  501 +0.0000000000e+00 +0.0000000000e+00 +7.7439535106e+01 7.7439535106e+01 0.0000000000e+00 0.0000e+00 1.0000e+00
       21 -1    0    0  501  502 -0.0000000000e+00 -0.0000000000e+00 -5.0442580713e+01 5.0442580713e+01 0.0000000000e+00 0.0000e+00 1.0000e+00
       25  1    1    2    0    0 +0.0000000000e+00 +0.0000000000e+00 +2.6996954393e+01 1.2788211582e+02 1.2500000000e+02 0.0000e+00 0.0000e+00
<mgrwt>
<rscale>  0 0.12500000E+03</rscale>
<asrwt>0</asrwt>
<pdfrwt beam="1">  1       21 0.11913775E-01 0.12500000E+03</pdfrwt>
<pdfrwt beam="2">  1       21 0.77603971E-02 0.12500000E+03</pdfrwt>
<totfact> 0.73649490E+06</totfact>
</mgrwt>
</event>
<event>
 3      1 +1.7592000e+01 1.25000000e+02 7.54677100e-03 1.23506900e-01
       21 -1    0    0  502  501 +0.0000000000e+00 +0.0000000000e+00 +1.9684456887e+02 1.9684456887e+02 0.0000000000e+00 0.0000e+00 -1.0000e+00
       21 -1    0    0  501  502 -0.0000000000e+00 -0.0000000000e+00 -1.9844337197e+01 1.9844337197e+01 0.0000000000e+00 0.0000e+00 -1.0000e+00
       25  1    1    2    0    0 +0.0000000000e+00 +0.0000000000e+00 +1.7700023167e+02 2.1668890606e+02 1.2500000000e+02 0.0000e+00 0.0000e+00
<mgrwt>
<rscale>  0 0.12500000E+03</rscale>
<asrwt>0</asrwt>
<pdfrwt beam="1">  1       21 0.30283779E-01 0.12500000E+03</pdfrwt>
<pdfrwt beam="2">  1       21 0.30529751E-02 0.12500000E+03</pdfrwt>
<totfact> 0.63162586E+06</totfact>
</mgrwt>
</event>
<event>
 3      1 +1.7592000e+01 1.25000000e+02 7.54677100e-03 1.23506900e-01
       21 -1    0    0  502  501 +0.0000000000e+00 +0.0000000000e+00 +6.3934560082e+00 6.3934560082e+00 0.0000000000e+00 0.0000e+00 1.0000e+00
       21 -1    0    0  501  502 -0.0000000000e+00 -0.0000000000e+00 -6.1097628497e+02 6.1097628497e+02 0.0000000000e+00 0.0000e+00 1.0000e+00
       25  1    1    2    0    0 +0.0000000000e+00 +0.0000000000e+00 -6.0458282896e+02 6.1736974098e+02 1.2500000000e+02 0.0000e+00 0.0000e+00
<mgrwt>
<rscale>  0 0.12500000E+03</rscale>
<asrwt>0</asrwt>
<pdfrwt beam="1">  1       21 0.98360857E-03 0.12500000E+03</pdfrwt>
<pdfrwt beam="2">  1       21 0.93996356E-01 0.12500000E+03</pdfrwt>
<totfact> 0.36318703E+06</totfact>
</mgrwt>
</event>
<event>
 3      1 +1.7592000e+01 1.25000000e+02 7.54677100e-03 1.23506900e-01
       21 -1    0    0  502  501 +0.0000000000e+00 +0.0000000000e+00 +2.7219023774e+02 2.7219023774e+02 0.0000000000e+00 0.0000e+00 1.0000e+00
       21 -1    0    0  501  502 -0.0000000000e+00 -0.0000000000e+00 -1.4351175973e+01 1.4351175973e+01 0.0000000000e+00 0.0000e+00 1.0000e+00
       25  1    1    2    0    0 +0.0000000000e+00 +0.0000000000e+00 +2.5783906177e+02 2.8654141372e+02 1.2500000000e+02 0.0000e+00 0.0000e+00
<mgrwt>
<rscale>  0 0.12500000E+03</rscale>
<asrwt>0</asrwt>
<pdfrwt beam="1">  1       21 0.41875418E-01 0.12500000E+03</pdfrwt>
<pdfrwt beam="2">  1       21 0.22078734E-02 0.12500000E+03</pdfrwt>
<totfact> 0.56593517E+06</totfact>
</mgrwt>
</event>
<event>
 3      1 +1.7592000e+01 1.25000000e+02 7.54677100e-03 1.23506900e-01
       21 -1    0    0  502  501 +0.0000000000e+00 +0.0000000000e+00 +3.2187576615e+00 3.2187576615e+00 0.0000000000e+00 0.0000e+00 -1.0000e+00
       21 -1    0    0  501  502 -0.0000000000e+00 -0.0000000000e+00 -1.2135893443e+03 1.2135893443e+03 0.0000000000e+00 0.0000e+00 -1.0000e+00
       25  1    1    2    0    0 +0.0000000000e+00 +0.0000000000e+00 -1.2103705867e+03 1.2168081020e+03 1.2500000000e+02 0.0000e+00 0.0000e+00
<mgrwt>
<rscale>  0 0.12500000E+03</rscale>
<asrwt>0</asrwt>
<pdfrwt beam="1">  1       21 0.49519248E-03 0.12500000E+03</pdfrwt>
<pdfrwt beam="2">  1       21 0.18670643E+00 0.12500000E+03</pdfrwt>
<totfact> 0.18811557E+06</totfact>
</mgrwt>
</event>
<event>
 3      1 +1.7592000e+01 1.25000000e+02 7.54677100e-03 1.23506900e-01
       21 -1    0    0  502  501 +0.0000000000e+00 +0.0000000000e+00 +3.8745391700e+02 3.8745391700e+02 0.0000000000e+00 0.0000e+00 1.0000e+00
       21 -1    0    0  501  502 -0.0000000000e+00 -0.0000000000e+00 -1.0081844133e+01 1.0081844133e+01 0.0000000000e+00 0.0000e+00 1.0000e+00
       25  1    1    2    0    0 +0.0000000000e+00 +0.0000000000e+00 +3.7737207287e+02 3.9753576113e+02 1.2500000000e+02 0.0000e+00 0.0000e+00
<mgrwt>
<rscale>  0 0.12500000E+03</rscale>
<asrwt>0</asrwt>
<pdfrwt beam="1">  1       21 0.59608283E-01 0.12500000E+03</pdfrwt>
<pdfrwt beam="2">  1       21 0.15510532E-02 0.12500000E+03</pdfrwt>
<totfact> 0.48205236E+06</totfact>
</mgrwt>
</event>
<event>
 3      1 +1.7592000e+01 1.25000000e+02 7.54677100e-03 1.23506900e-01
       21 -1    0    0  502  501 +0.0000000000e+00 +0.0000000000e+00 +1.5990091240e+01 1.5990091240e+01 0.0000000000e+00 0.0000e+00 -1.0000e+00
       21 -1    0    0  501  502 -0.0000000000e+00 -0.0000000000e+00 -2.4429191437e+02 2.4429191437e+02 0.0000000000e+00 0.0000e+00 -1.0000e+00
       25  1    1    2    0    0 +0.0000000000e+00 +0.0000000000e+00 -2.2830182313e+02 2.6028200561e+02 1.2500000000e+02 0.0000e+00 0.0000e+00
<mgrwt>
<rscale>  0 0.12500000E+03</rscale>
<asrwt>0</asrwt>
<pdfrwt beam="1">  1       21 0.24600140E-02 0.12500000E+03</pdfrwt>
<pdfrwt beam="2">  1       21 0.37583372E-01 0.12500000E+03</pdfrwt>
<totfact> 0.58923433E+06</totfact>
</mgrwt>
</event>
<event>
 3      1 +1.7592000e+01 1.25000000e+02 7.54677100e-03 1.23506900e-01
       21 -1    0    0  502  501 +0.0000000000e+00 +0.0000000000e+00 +4.7098429870e+00 4.7098429870e+00 0.0000000000e+00 0.0000e+00 -1.0000e+00
       21 -1    0    0  501  502 -0.0000000000e+00 -0.0000000000e+00 -8.2938008990e+02 8.2938008990e+02 0.0000000000e+00 0.0000e+00 -1.0000e+00
       25  1    1    2    0    0 +0.0000000000e+00 +0.0000000000e+00 -8.2467024691e+02 8.3408993289e+02 1.2500000000e+02 0.0000e+00 0.0000e+00
<mgrwt>
<rscale>  0 0.12500000E+03</rscale>
<asrwt>0</asrwt>
<pdfrwt beam="1">  1       21 0.72459187E-03 0.12500000E+03</pdfrwt>
<pdfrwt beam="2">  1       21 0.12759682E+00 0.12500000E+03</pdfrwt>
<totfact> 0.28264073E+06</totfact>
</mgrwt>
</event>
<event>
 3      1 +1.7592000e+01 1.25000000e+02 7.54677100e-03 1.23506900e-01
       21 -1    0    0  502  501 +0.0000000000e+00 +0.0000000000e+00 +4.3523287389e+01 4.3523287389e+01 0.0000000000e+00 0.0000e+00 -1.0000e+00
       21 -1    0    0  501  502 -0.0000000000e+00 -0.0000000000e+00 -8.9750803175e+01 8.9750803175e+01 0.0000000000e+00 0.0000e+00 -1.0000e+00
       25  1    1    2    0    0 +0.0000000000e+00 +0.0000000000e+00 -4.6227515786e+01 1.3327409056e+02 1.2500000000e+02 0.0000e+00 0.0000e+00
<mgrwt>
<rscale>  0 0.12500000E+03</rscale>
<asrwt>0</asrwt>
<pdfrwt beam="1">  1       21 0.66958904E-02 0.12500000E+03</pdfrwt>
<pdfrwt beam="2">  1       21 0.13807816E-01 0.12500000E+03</pdfrwt>
<totfact> 0.72925820E+06</totfact>
</mgrwt>
</event>
<event>
 3      1 +1.7592000e+01 1.25000000e+02 7.54677100e-03 1.23506900e-01
       21 -1    0    0  502  501 +0.0000000000e+00 +0.0000000000e+00 +6.1763258357e+02 6.1763258357e+02 0.0000000000e+00 0.0000e+00 -1.0000e+00
       21 -1    0    0  501  502 -0.0000000000e+00 -0.0000000000e+00 -6.3245529849e+00 6.3245529849e+00 0.0000000000e+00 0.0000e+00 -1.0000e+00
       25  1    1    2    0    0 +0.0000000000e+00 +0.0000000000e+00 +6.1130803059e+02 6.2395713656e+02 1.2500000000e+02 0.0000e+00 0.0000e+00
<mgrwt>
<rscale>  0 0.12500000E+03</rscale>
<asrwt>0</asrwt>
<pdfrwt beam="1">  1       21 0.95020350E-01 0.12500000E+03</pdfrwt>
<pdfrwt beam="2">  1       21 0.97300864E-03 0.12500000E+03</pdfrwt>
<totfact> 0.36031146E+06</totfact>
</mgrwt>
</event>
<event>
 3      1 +1.7592000e+01 1.25000000e+02 7.54677100e-03 1.23506900e-01
       21 -1    0    0  502  501 +0.0000000000e+00 +0.0000000000e+00 +4.0030859583e+00 4.0030859583e+00 0.0000000000e+00 0.0000e+00 1.0000e+00
       21 -1    0    0  501  502 -0.0000000000e+00 -0.0000000000e+00 -9.7580967301e+02 9.7580967301e+02 0.0000000000e+00 0.0000e+00 1.0000e+00
       25  1    1    2    0    0 +0.0000000000e+00 +0.0000000000e+00 -9.7180658706e+02 9.7981275897e+02 1.2500000000e+02 0.0000e+00 0.0000e+00
<mgrwt>
<rscale>  0 0.12500000E+03</rscale>
<asrwt>0</asrwt>
<pdfrwt beam="1">  1       21 0.61585948E-03 0.12500000E+03</pdfrwt>
<pdfrwt beam="2">  1       21 0.15012454E+00 0.12500000E+03</pdfrwt>
<totfact> 0.24129839E+06</totfact>
</mgrwt>
</event>
<event>
 3      1 +1.7592000e+01 1.25000000e+02 7.54677100e-03 1.23506900e-01
       21 -1    0    0  502  501 +0.0000000000e+00 +0.0000000000e+00 +1.8980605665e+02 1.8980605665e+02 0.0000000000e+00 0.0000e+00 -1.0000e+00
       21 -1    0    0  501  502 -0.0000000000e+00 -0.0000000000e+00 -2.0580217876e+01 2.0580217876e+01 0.0000000000e+00 0.0000e+00 -1.0000e+00
       25  1    1    2    0    0 +0.0000000000e+00 +0.0000000000e+00 +1.6922583878e+02 2.1038627453e+02 1.2500000000e+02 0.0000e+00 0.0000e+00
<mgrwt>
<rscale>  0 0.12500000E+03</rscale>
<asrwt>0</asrwt>
<pdfrwt beam="1">  1       21 0.29200931E-01 0.12500000E+03</pdfrwt>
<pdfrwt beam="2">  1       21 0.31661875E-02 0.12500000E+03</pdfrwt>
<totfact> 0.63818919E+06</totfact>
</mgrwt>
</event>
<event>
 3      1 +1.7592000e+01 1.25000000e+02 7.54677100e-03 1.23506900e-01
       21 -1    0    0  502  501 +0.0000000000e+00 +0.0000000000e+00 +3.8562531493e+02 3.8562531493e+02 0.0000000000e+00 0.0000e+00 1.0000e+00
       21 -1    0    0  501  502 -0.0000000000e+00 -0.0000000000e+00 -1.0129651371e+01 1.0129651371e+01 0.0000000000e+00 0.0000e+00 1.0000e+00
       25  1    1    2    0    0 +0.0000000000e+00 +0.0000000000e+00 +3.7549566356e+02 3.9575496630e+02 1.2500000000e+02 0.0000e+00 0.0000e+00
<mgrwt>
<rscale>  0 0.12500000E+03</rscale>
<asrwt>0</asrwt>
<pdfrwt beam="1">  1       21 0.59326960E-01 0.12500000E+03</pdfrwt>
<pdfrwt beam="2">  1       21 0.15584082E-02 0.12500000E+03</pdfrwt>
<totfact> 0.48324204E+06</totfact>
</mgrwt>
</event>
<event>
 3      1 +1.7592000e+01 1.25000000e+02 7.54677100e-03 1.23506900e-01
       21 -1    0    0  502  501 +0.0000000000e+00 +0.0000000000e+00 +1.2398436786e+01 1.2398436786e+01 0.0000000000e+00 0.0000e+00 1.0000e+00
       21 -1    0    0  501  502 -0.0000000000e+00 -0.0000000000e+00 -3.1505987951e+02 3.1505987951e+02 0.0000000000e+00 0.0000e+00 1.0000e+00
       25  1    1    2    0    0 +0.0000000000e+00 +0.0000000000e+00 -3.0266144272e+02 3.2745831630e+02 1.2500000000e+02 0.0000e+00 0.0000e+00
<mgrwt>
<rscale>  0 0.12500000E+03</rscale>
<asrwt>0</asrwt>
<pdfrwt beam="1">  1       21 0.19074520E-02 0.12500000E+03</pdfrwt>
<pdfrwt beam="2">  1       21 0.48470747E-01 0.12500000E+03</pdfrwt>
<totfact> 0.53247553E+06</totfact>
</mgrwt>
</event>
<event>
 3      1 +1.7592000e+01 1.25000000e+02 7.54677100e-03 1.23506900e-01
       21 -1    0    0  502  501 +0.0000000000e+00 +0.0000000000e+00 +7.0193437821e+02 7.0193437821e+02 0.0000000000e+00 0.0000e+00 1.0000e+00
       21 -1    0    0  501  502 -0.0000000000e+00 -0.0000000000e+00 -5.5649788944e+00 5.5649788944e+00 0.0000000000e+00 0.0000e+00 1.0000e+00
       25  1    1    2    0    0 +0.0000000000e+00 +0.0000000000e+00 +6.9636939932e+02 7.0749935711e+02 1.2500000000e+02 0.0000e+00 0.0000e+00
<mgrwt>
<rscale>  0 0.12500000E+03</rscale>
<asrwt>0</asrwt>
<pdfrwt beam="1">  1       21 0.10798983E+00 0.12500000E+03</pdfrwt>
<pdfrwt beam="2">  1       21 0.85615115E-03 0.12500000E+03</pdfrwt>
<totfact> 0.32623030E+06</totfact>
</mgrwt>
</event>
<event>
 3      1 +1.7592000e+01 1.25000000e+02 7.54677100e-03 1.23506900e-01
       21 -1    0    0  502  501 +0.0000000000e+00 +0.0000000000e+00 +8.2091093513e+01 8.2091093513e+01 0.0000000000e+00 0.0000e+00 -1.0000e+00
       21 -1    0    0  501  502 -0.0000000000e+00 -0.0000000000e+00 -4.7584333852e+01 4.7584333852e+01 0.0000000000e+00 0.0000e+00 -1.0000e+00
       25  1    1    2    0    0 +0.0000000000e+00 +0.0000000000e+00 +3.4506759660e+01 1.2967542736e+02 1.2500000000e+02 0.0000e+00 0.0000e+00
<mgrwt>
<rscale>  0 0.12500000E+03</rscale>
<asrwt>0</asrwt>
<pdfrwt beam="1">  1       21 0.12629399E-01 0.12500000E+03</pdfrwt>
<pdfrwt beam="2">  1       21 0.73206668E-02 0.12500000E+03</pdfrwt>
<totfact> 0.73408326E+06</totfact>
</mgrwt>
</event>
<event>
 3      1 +1.7592000e+01 1.25000000e+02 7.54677100e-03 1.23506900e-01
       21 -1    0    0  502  501 +0.0000000000e+00 +0.0000000000e+00 +2.0012348879e+02 2.0012348879e+02 0.0000000000e+00 0.0000e+00 -1.0000e+00
       21 -1    0    0  501  502 -0.0000000000e+00 -0.0000000000e+00 -1.9519197989e+01 1.9519197989e+01 0.0000000000e+00 0.0000e+00 -1.0000e+00
       25  1    1    2    0    0 +0.0000000000e+00 +0.0000000000e+00 +1.8060429081e+02 2.1964268678e+02 1.2500000000e+02 0.0000e+00 0.0000e+00
<mgrwt>
<rscale>  0 0.12500000E+03</rscale>
<asrwt>0</asrwt>
<pdfrwt beam="1">  1       21 0.30788228E-01 0.12500000E+03</pdfrwt>
<pdfrwt beam="2">  1       21 0.30029537E-02 0.12500000E+03</pdfrwt>
<totfact> 0.62859077E+06</totfact>
</mgrwt>
</event>
<event>
 3      1 +1.7592000e+01 1.25000000e+02 7.54677100e-03 1.23506900e-01
       21 -1    0    0  502  501 +0.0000000000e+00 +0.0000000000e+00 +1.0106156456e+01 1.0106156456e+01 0.0000000000e+00 0.0000e+00 -1.0000e+00
       21 -1    0    0  501  502 -0.0000000000e+00 -0.0000000000e+00 -3.8652182134e+02 3.8652182134e+02 0.0000000000e+00 0.0000e+00 -1.0000e+00
       25  1    1    2    0    0 +0.0000000000e+00 +0.0000000000e+00 -3.7641566489e+02 3.9662797780e+02 1.2500000000e+02 0.0000e+00 0.0000e+00
<mgrwt>
<rscale>  0 0.12500000E+03</rscale>
<asrwt>0</asrwt>
<pdfrwt beam="1">  1       21 0.15547929E-02 0.12500000E+03</pdfrwt>
<pdfrwt beam="2">  1       21 0.59464909E-01 0.12500000E+03</pdfrwt>
<totfact> 0.48265814E+06</totfact>
</mgrwt>
</event>
<event>
 3      1 +1.7592000e+01 1.25000000e+02 7.54677100e-03 1.23506900e-01
       21 -1    0    0  502  501 +0.0000000000e+00 +0.0000000000e+00 +2.7218600918e+01 2.7218600918e+01 0.0000000000e+00 0.0000e+00 -1.0000e+00
       21 -1    0    0  501  502 -0.0000000000e+00 -0.0000000000e+00 -1.4351398927e+02 1.4351398927e+02 0.0000000000e+00 0.0000e+00 -1.0000e+00
       25  1    1    2    0    0 +0.0000000000e+00 +0.0000000000e+00 -1.1629538835e+02 1.7073259019e+02 1.2500000000e+02 0.0000e+00 0.0000e+00
<mgrwt>
<rscale>  0 0.12500000E+03</rscale>
<asrwt>0</asrwt>
<pdfrwt beam="1">  1       21 0.41874771E-02 0.12500000E+03</pdfrwt>
<pdfrwt beam="2">  1       21 0.22079075E-01 0.12500000E+03</pdfrwt>
<totfact> 0.68230897E+06</totfact>
</mgrwt>
</event>
<event>
 3      1 +1.7592000e+01 1.25000000e+02 7.54677100e-03 1.23506900e-01
       21 -1    0    0  502  501 +0.0000000000e+00 +0.0000000000e+00 +6.0935120466e+01 6.0935120466e+01 0.0000000000e+00 0.0000e+00 -1.0000e+00
       21 -1    0    0  501  502 -0.0000000000e+00 -0.0000000000e+00 -6.4105067326e+01 6.4105067326e+01 0.0000000000e+00 0.0000e+00 -1.0000e+00
       25  1    1    2    0    0 +0.0000000000e+00 +0.0000000000e+00 -3.1699468598e+00 1.2504018779e+02 1.2500000000e+02 0.0000e+00 0.0000e+00
<mgrwt>
<rscale>  0 0.12500000E+03</rscale>
<asrwt>0</asrwt>
<pdfrwt beam="1">  1       21 0.93746339E-02 0.12500000E+03</pdfrwt>
<pdfrwt beam="2">  1       21 0.98623181E-02 0.12500000E+03</pdfrwt>
<totfact> 0.74038153E+06</totfact>
</mgrwt>
</event>
<event>
 3      1 +1.7592000e+01 1.25000000e+02 7.54677100e-03 1.23506900e-01
       21 -1    0    0  502  501 +0.0000000000e+00 +0.0000000000e+00 +4.1089367975e+00 4.1089367975e+00 0.0000000000e+00 0.0000e+00 1.0000e+00
       21 -1    0    0  501  502 -0.0000000000e+00 -0.0000000000e+00 -9.5067171691e+02 9.5067171691e+02 0.0000000000e+00 0.0000e+00 1.0000e+00
       25  1    1    2    0    0 +0.0000000000e+00 +0.0000000000e+00 -9.4656278011e+02 9.5478065371e+02 1.2500000000e+02 0.0000e+00 0.0000e+00
<mgrwt>
<rscale>  0 0.12500000E+03</rscale>
<asrwt>0</asrwt>
<pdfrwt beam="1">  1       21 0.63214422E-03 0.12500000E+03</pdfrwt>
<pdfrwt beam="2">  1       21 0.14625717E+00 0.12500000E+03</pdfrwt>
<totfact> 0.24783846E+06</totfact>
</mgrwt>
</event>
<event>
 3      1 +1.7592000e+01 1.25000000e+02 7.54677100e-03 1.23506900e-01
       21 -1    0    0  502  501 +0.0000000000e+00 +0.0000000000e+00 +1.4510486521e+00 1.4510486521e+00 0.0000000000e+00 0.0000e+00 1.0000e+00
       21 -1    0    0  501  502 -0.0000000000e+00 -0.0000000000e+00 -2.6920186269e+03 2.6920186269e+03 0.0000000000e+00 0.0000e+00 1.0000e+00
       25  1    1    2    0    0 +0.0000000000e+00 +0.0000000000e+00 -2.6905675783e+03 2.6934696756e+03 1.2500000000e+02 0.0000e+00 0.0000e+00
<mgrwt>
<rscale>  0 0.12500000E+03</rscale>
<asrwt>0</asrwt>
<pdfrwt beam="1">  1       21 0.22323734E-03 0.12500000E+03</pdfrwt>
<pdfrwt beam="2">  1       21 0.41415841E+00 0.12500000E+03</pdfrwt>
<totfact> 0.29647710E+05</totfact>
</mgrwt>
</event>
<event>
 3      1 +1.7592000e+01 1.25000000e+02 7.54677100e-03 1.23506900e-01
       21 -1    0    0  502  501 +0.0000000000e+00 +0.0000000000e+00 +1.3538081285e+01 1.3538081285e+01 0.0000000000e+00 0.0000e+00 1.0000e+00
       21 -1    0    0  501  502 -0.0000000000e+00 -0.0000000000e+00 -2.8853793367e+02 2.8853793367e+02 0.0000000000e+00 0.0000e+00 1.0000e+00
       25  1    1    2    0    0 +0.0000000000e+00 +0.0000000000e+00 -2.7499985239e+02 3.0207601496e+02 1.2500000000e+02 0.0000e+00 0.0000e+00
<mgrwt>
<rscale>  0 0.12500000E+03</rscale>
<asrwt>0</asrwt>
<pdfrwt beam="1">  1       21 0.20827818E-02 0.12500000E+03</pdfrwt>
<pdfrwt beam="2">  1       21 0.44390451E-01 0.12500000E+03</pdfrwt>
<totfact> 0.55284089E+06</totfact>
</mgrwt>
</event>
<event>
 3      1 +1.7592000e+01 1.25000000e+02 7.54677100e-03 1.23506900e-01
       21 -1    0    0  502  501 +0.0000000000e+00 +0.0000000000e+00 +4.3594040439e+00 4.3594040439e+00 0.0000000000e+00 0.0000e+00 -1.0000e+00
       21 -1    0    0  501  502 -0.0000000000e+00 -0.0000000000e+00 -8.9605137782e+02 8.9605137782e+02 0.0000000000e+00 0.0000e+00 -1.0000e+00
       25  1    1    2    0    0 +0.0000000000e+00 +0.0000000000e+00 -8.9169197377e+02 9.0041078186e+02 1.2500000000e+02 0.0000e+00 0.0000e+00
<mgrwt>
<rscale>  0 0.12500000E+03</rscale>
<asrwt>0</asrwt>
<pdfrwt beam="1">  1       21 0.67067744E-03 0.12500000E+03</pdfrwt>
<pdfrwt beam="2">  1       21 0.13785408E+00 0.12500000E+03</pdfrwt>
<totfact> 0.26287300E+06</totfact>
</mgrwt>
</event>
<event>
 3      1 +1.7592000e+01 1.25000000e+02 7.54677100e-03 1.23506900e-01
       21 -1    0    0  502  501 +0.0000000000e+00 +0.0000000000e+00 +7.4371458290e+01 7.4371458290e+01 0.0000000000e+00 0.0000e+00 1.0000e+00
       21 -1    0    0  501  502 -0.0000000000e+00 -0.0000000000e+00 -5.2523509553e+01 5.2523509553e+01 0.0000000000e+00 0.0000e+00 1.0000e+00
       25  1    1    2    0    0 +0.0000000000e+00 +0.0000000000e+00 +2.1847948737e+01 1.2689496784e+02 1.2500000000e+02 0.0000e+00 0.0000e+00
<mgrwt>
<rscale>  0 0.12500000E+03</rscale>
<asrwt>0</asrwt>
<pdfrwt beam="1">  1       21 0.11441763E-01 0.12500000E+03</pdfrwt>
<pdfrwt beam="2">  1       21 0.80805399E-02 0.12500000E+03</pdfrwt>
<totfact> 0.73783441E+06</totfact>
</mgrwt>
</event>
<event>
 3      1 +1.7592000e+01 1.25000000e+02 7.54677100e-03 1.23506900e-01
       21 -1    0    0  502  501 +0.0000000000e+00 +0.0000000000e+00 +5.8788582268e+01 5.8788582268e+01 0.0000000000e+00 0.0000e+00 1.0000e+00
       21 -1    0    0  501  502 -0.0000000000e+00 -0.0000000000e+00 -6.6445725501e+01 6.6445725501e+01 0.0000000000e+00 0.0000e+00 1.0000e+00
       25  1    1    2    0    0 +0.0000000000e+00 +0.0000000000e+00 -7.6571432325e+00 1.2523430777e+02 1.2500000000e+02 0.0000e+00 0.0000e+00
<mgrwt>
<rscale>  0 0.12500000E+03</rscale>
<asrwt>0</asrwt>
<pdfrwt beam="1">  1       21 0.90443973E-02 0.12500000E+03</pdfrwt>
<pdfrwt beam="2">  1       21 0.10222419E-01 0.12500000E+03</pdfrwt>
<totfact> 0.74011940E+06</totfact>
</mgrwt>
</event>
<event>
 3      1 +1.7592000e+01 1.25000000e+02 7.54677100e-03 1.23506900e-01
       21 -1    0    0  502  501 +0.0000000000e+00 +0.0000000000e+00 +4.4607996597e+02 4.4607996597e+02 0.0000000000e+00 0.0000e+00 1.0000e+00
       21 -1    0    0  501  502 -0.0000000000e+00 -0.0000000000e+00 -8.7568380065e+00 8.7568380065e+00 0.0000000000e+00 0.0000e+00 1.0000e+00
       25  1    1    2    0    0 +0.0000000000e+00 +0.0000000000e+00 +4.3732312797e+02 4.5483680398e+02 1.2500000000e+02 0.0000e+00 0.0000e+00
<mgrwt>
<rscale>  0 0.12500000E+03</rscale>
<asrwt>0</asrwt>
<pdfrwt beam="1">  1       21 0.68627669E-01 0.12500000E+03</pdfrwt>
<pdfrwt beam="2">  1       21 0.13472062E-02 0.12500000E+03</pdfrwt>
<totfact> 0.44604260E+06</totfact>
</mgrwt>
</event>
<event>
 3      1 +1.7592000e+01 1.25000000e+02 7.54677100e-03 1.23506900e-01
       21 -1    0    0  502  501 +0.0000000000e+00 +0.0000000000e+00 +5.8361369506e+00 5.8361369506e+00 0.0000000000e+00 0.0000e+00 1.0000e+00
       21 -1    0    0  501  502 -0.0000000000e+00 -0.0000000000e+00 -6.6932116794e+02 6.6932116794e+02 0.0000000000e+00 0.0000e+00 1.0000e+00
       25  1    1    2    0    0 +0.0000000000e+00 +0.0000000000e+00 -6.6348503099e+02 6.7515730489e+02 1.2500000000e+02 0.0000e+00 0.0000e+00
<mgrwt>
<rscale>  0 0.12500000E+03</rscale>
<asrwt>0</asrwt>
<pdfrwt beam="1">  1       21 0.89786695E-03 0.12500000E+03</pdfrwt>
<pdfrwt beam="2">  1       21 0.10297252E+00 0.12500000E+03</pdfrwt>
<totfact> 0.33890082E+06</totfact>
</mgrwt>
</event>
<event>
 3      1 +1.7592000e+01 1.25000000e+02 7.54677100e-03 1.23506900e-01
       21 -1    0    0  502  501 +0.0000000000e+00 +0.0000000000e+00 +7.4975380482e+01 7.4975380482e+01 0.0000000000e+00 0.0000e+00 1.0000e+00
       21 -1    0    0  501  502 -0.0000000000e+00 -0.0000000000e+00 -5.2100435835e+01 5.2100435835e+01 0.0000000000e+00 0.0000e+00 1.0000e+00
       25  1    1    2    0    0 +0.0000000000e+00 +0.0000000000e+00 +2.2874944648e+01 1.2707581632e+02 1.2500000000e+02 0.0000e+00 0.0000e+00
<mgrwt>
<rscale>  0 0.12500000E+03</rscale>
<asrwt>0</asrwt>
<pdfrwt beam="1">  1       21 0.11534674E-01 0.12500000E+03</pdfrwt>
<pdfrwt beam="2">  1       21 0.80154516E-02 0.12500000E+03</pdfrwt>
<totfact> 0.73758819E+06</totfact>
</mgrwt>
</event>
<event>
 3      1 +1.7592000e+01 1.25000000e+02 7.54677100e-03 1.23506900e-01
       21 -1    0    0  502  501 +0.0000000000e+00 +0.0000000000e+00 +9.9664728398e+00 9.9664728398e+00 0.0000000000e+00 0.0000e+00 -1.0000e+00
       21 -1    0    0  501  502 -0.0000000000e+00 -0.0000000000e+00 -3.9193906037e+02 3.9193906037e+02 0.0000000000e+00 0.0000e+00 -1.0000e+00
       25  1    1    2    0    0 +0.0000000000e+00 +0.0000000000e+00 -3.8197258753e+02 4.0190553321e+02 1.2500000000e+02 0.0000e+00 0.0000e+00
<mgrwt>
<rscale>  0 0.12500000E+03</rscale>
<asrwt>0</asrwt>
<pdfrwt beam="1">  1       21 0.15333034E-02 0.12500000E+03</pdfrwt>
<pdfrwt beam="2">  1       21 0.60298323E-01 0.12500000E+03</pdfrwt>
<totfact> 0.47915213E+06</totfact>
</mgrwt>
</event>
<event>
 3      1 +1.7592000e+01 1.25000000e+02 7.54677100e-03 1.23506900e-01
       21 -1    0    0  502  501 +0.0000000000e+00 +0.0000000000e+00 +1.0007573462e+01 1.0007573462e+01 0.0000000000e+00 0.0000e+00 -1.0000e+00
       21 -1    0    0  501  502 -0.0000000000e+00 -0.0000000000e+00 -3.9032938551e+02 3.9032938551e+02 0.0000000000e+00 0.0000e+00 -1.0000e+00
       25  1    1    2    0    0 +0.0000000000e+00 +0.0000000000e+00 -3.8032181204e+02 4.0033695897e+02 1.2500000000e+02 0.0000e+00 0.0000e+00
<mgrwt>
<rscale>  0 0.12500000E+03</rscale>
<asrwt>0</asrwt>
<pdfrwt beam="1">  1       21 0.15396267E-02 0.12500000E+03</pdfrwt>
<pdfrwt beam="2">  1       21 0.60050675E-01 0.12500000E+03</pdfrwt>
<totfact> 0.48019008E+06</totfact>
</mgrwt>
</event>
<event>
 3      1 +1.7592000e+01 1.25000000e+02 7.54677100e-03 1.23506900e-01
       21 -1    0    0  502  501 +0.0000000000e+00 +0.0000000000e+00 +2.1120466797e+01 2.1120466797e+01 0.0000000000e+00 0.0000e+00 1.0000e+00
       21 -1    0    0  501  502 -0.0000000000e+00 -0.0000000000e+00 -1.8495093113e+02 1.8495093113e+02 0.0000000000e+00 0.0000e+00 1.0000e+00
       25  1    1    2    0    0 +0.0000000000e+00 +0.0000000000e+00 -1.6383046433e+02 2.0607139793e+02 1.2500000000e+02 0.0000e+00 0.0000e+00
<mgrwt>
<rscale>  0 0.12500000E+03</rscale>
<asrwt>0</asrwt>
<pdfrwt beam="1">  1       21 0.32493027E-02 0.12500000E+03</pdfrwt>
<pdfrwt beam="2">  1       21 0.28453989E-01 0.12500000E+03</pdfrwt>
<totfact> 0.64275255E+06</totfact>
</mgrwt>
</event>
<event>
 3      1 +1.7592000e+01 1.25000000e+02 7.54677100e-03 1.23506900e-01
       21 -1    0    0  502  501 +0.0000000000e+00 +0.0000000000e+00 +1.6464938954e+02 1.6464938954e+02 0.0000000000e+00 0.0000e+00 1.0000e+00
       21 -1    0    0  501  502 -0.0000000000e+00 -0.0000000000e+00 -2.3724655225e+01 2.3724655225e+01 0.0000000000e+00 0.0000e+00 1.0000e+00
       25  1    1    2    0    0 +0.0000000000e+00 +0.0000000000e+00 +1.4092473432e+02 1.8837404477e+02 1.2500000000e+02 0.0000e+00 0.0000e+00
<mgrwt>
<rscale>  0 0.12500000E+03</rscale>
<asrwt>0</asrwt>
<pdfrwt beam="1">  1       21 0.25330675E-01 0.12500000E+03</pdfrwt>
<pdfrwt beam="2">  1       21 0.36499471E-02 0.12500000E+03</pdfrwt>
<totfact> 0.66203631E+06</totfact>
</mgrwt>
</event>
<event>
 3      1 +1.7592000e+01 1.25000000e+02 7.54677100e-03 1.23506900e-01
       21 -1    0    0  502  501 +0.0000000000e+00 +0.0000000000e+00 +8.6680381900e+01 8.6680381900e+01 0.0000000000e+00 0.0000e+00 1.0000e+00
       21 -1    0    0  501  502 -0.0000000000e+00 -0.0000000000e+00 -4.5064983729e+01 4.5064983729e+01 0.0000000000e+00 0.0000e+00 1.0000e+00
       25  1    1    2    0    0 +0.0000000000e+00 +0.0000000000e+00 +4.1615398171e+01 1.3174536563e+02 1.2500000000e+02 0.0000e+00 0.0000e+00
<mgrwt>
<rscale>  0 0.12500000E+03</rscale>
<asrwt>0</asrwt>
<pdfrwt beam="1">  1       21 0.13335443E-01 0.12500000E+03</pdfrwt>
<pdfrwt beam="2">  1       21 0.69330744E-02 0.12500000E+03</pdfrwt>
<totfact> 0.73130403E+06</totfact>
</mgrwt>
</event>
<event>
 3      1 +1.7592000e+01 1.25000000e+02 7.54677100e-03 1.23506900e-01
       21 -1    0    0  502  501 +0.0000000000e+00 +0.0000000000e+00 +3.8363177483e+02 3.8363177483e+02 0.0000000000e+00 0.0000e+00 -1.0000e+00
       21 -1    0    0  501  502 -0.0000000000e+00 -0.0000000000e+00 -1.0182290040e+01 1.0182290040e+01 0.0000000000e+00 0.0000e+00 -1.0000e+00
       25  1    1    2    0    0 +0.0000000000e+00 +0.0000000000e+00 +3.7344948479e+02 3.9381406487e+02 1.2500000000e+02 0.0000e+00 0.0000e+00
<mgrwt>
<rscale>  0 0.12500000E+03</rscale>
<asrwt>0</asrwt>
<pdfrwt beam="1">  1       21 0.59020262E-01 0.12500000E+03</pdfrwt>
<pdfrwt beam="2">  1       21 0.15665065E-02 0.12500000E+03</pdfrwt>
<totfact> 0.48454386E+06</totfact>
</mgrwt>
</event>
<event>
 3      1 +1.7592000e+01 1.25000000e+02 7.54677100e-03 1.23506900e-01
       21 -1    0    0  502  501 +0.0000000000e+00 +0.0000000000e+00 +2.2264518178e+02 2.2264518178e+02 0.0000000000e+00 0.0000e+00 1.0000e+00
       21 -1    0    0  501  502 -0.0000000000e+00 -0.0000000000e+00 -1.7544731796e+01 1.7544731796e+01 0.0000000000e+00 0.0000e+00 1.0000e+00
       25  1    1    2    0    0 +0.0000000000e+00 +0.0000000000e+00 +2.0510044999e+02 2.4018991358e+02 1.2500000000e+02 0.0000e+00 0.0000e+00
<mgrwt>
<rscale>  0 0.12500000E+03</rscale>
<asrwt>0</asrwt>
<pdfrwt beam="1">  1       21 0.34253103E-01 0.12500000E+03</pdfrwt>
<pdfrwt beam="2">  1       21 0.26991897E-02 0.12500000E+03</pdfrwt>
<totfact> 0.60814291E+06</totfact>
</mgrwt>
</event>
<event>
 3      1 +1.7592000e+01 1.25000000e+02 7.54677100e-03 1.23506900e-01
       21 -1    0    0  502  501 +0.0000000000e+00 +0.0000000000e+00 +3.9435575214e+02 3.9435575214e+02 0.0000000000e+00 0.0000e+00 -1.0000e+00
       21 -1    0    0  501  502 -0.0000000000e+00 -0.0000000000e+00 -9.9053962794e+00 9.9053962794e+00 0.0000000000e+00 0.0000e+00 -1.0000e+00
       25  1    1    2    0    0 +0.0000000000e+00 +0.0000000000e+00 +3.8445035586e+02 4.0426114842e+02 1.2500000000e+02 0.0000e+00 0.0000e+00
<mgrwt>
<rscale>  0 0.12500000E+03</rscale>
<asrwt>0</asrwt>
<pdfrwt beam="1">  1       21 0.60670104E-01 0.12500000E+03</pdfrwt>
<pdfrwt beam="2">  1       21 0.15239074E-02 0.12500000E+03</pdfrwt>
<totfact> 0.47759997E+06</totfact>
</mgrwt>
</event>
<event>
 3      1 +1.7592000e+01 1.25000000e+02 7.54677100e-03 1.23506900e-01
       21 -1    0    0  502  501 +0.0000000000e+00 +0.0000000000e+00 +5.8463211628e+01 5.8463211628e+01 0.0000000000e+00 0.0000e+00 -1.0000e+00
       21 -1    0    0  501  502 -0.0000000000e+00 -0.0000000000e+00 -6.6815521953e+01 6.6815521953e+01 0.0000000000e+00 0.0000e+00 -1.0000e+00
       25  1    1    2    0    0 +0.0000000000e+00 +0.0000000000e+00 -8.3523103253e+00 1.2527873358e+02 1.2500000000e+02 0.0000e+00 0.0000e+00
<mgrwt>
<rscale>  0 0.12500000E+03</rscale>
<asrwt>0</asrwt>
<pdfrwt beam="1">  1       21 0.89943402E-02 0.12500000E+03</pdfrwt>
<pdfrwt beam="2">  1       21 0.10279311E-01 0.12500000E+03</pdfrwt>
<totfact> 0.74005942E+06</totfact>
</mgrwt>
</event>
<event>
 3      1 +1.7592000e+01 1.25000000e+02 7.54677100e-03 1.23506900e-01
       21 -1    0    0  502  501 +0.0000000000e+00 +0.0000000000e+00 +4.6358764995e+01 4.6358764995e+01 0.0000000000e+00 0.0000e+00 1.0000e+00
       21 -1    0    0  501  502 -0.0000000000e+00 -0.0000000000e+00 -8.4261304208e+01 8.4261304208e+01 0.0000000000e+00 0.0000e+00 1.0000e+00
       25  1    1    2    0    0 +0.0000000000e+00 +0.0000000000e+00 -3.7902539213e+01 1.3062006920e+02 1.2500000000e+02 0.0000e+00 0.0000e+00
<mgrwt>
<rscale>  0 0.12500000E+03</rscale>
<asrwt>0</asrwt>
<pdfrwt beam="1">  1       21 0.71321177E-02 0.12500000E+03</pdfrwt>
<pdfrwt beam="2">  1       21 0.12963278E-01 0.12500000E+03</pdfrwt>
<totfact> 0.73281917E+06</totfact>
</mgrwt>
</event>
<event>
 3      1 +1.7592000e+01 1.25000000e+02 7.54677100e-03 1.23506900e-01
       21 -1    0    0  502  501 +0.0000000000e+00 +0.0000000000e+00 +1.1545913988e+02 1.1545913988e+02 0.0000000000e+00 0.0000e+00 -1.0000e+00
       21 -1    0    0  501  502 -0.0000000000e+00 -0.0000000000e+00 -3.3832315085e+01 3.3832315085e+01 0.0000000000e+00 0.0000e+00 -1.0000e+00
       25  1    1    2    0    0 +0.0000000000e+00 +0.0000000000e+00 +8.1626824798e+01 1.4929145497e+02 1.2500000000e+02 0.0000e+00 0.0000e+00
<mgrwt>
<rscale>  0 0.12500000E+03</rscale>
<asrwt>0</asrwt>
<pdfrwt beam="1">  1       21 0.17762944E-01 0.12500000E+03</pdfrwt>
<pdfrwt beam="2">  1       21 0.52049716E-02 0.12500000E+03</pdfrwt>
<totfact> 0.70848321E+06</totfact>
</mgrwt>
</event>
<event>
 3      1 +1.7592000e+01 1.25000000e+02 7.54677100e-03 1.23506900e-01
       21 -1    0    0  502  501 +0.0000000000e+00 +0.0000000000e+00 +1.4505117970e+01 1.4505117970e+01 0.0000000000e+00 0.0000e+00 1.0000e+00
       21 -1    0    0  501  502 -0.0000000000e+00 -0.0000000000e+00 -2.6930149814e+02 2.6930149814e+02 0.0000000000e+00 0.0000e+00 1.0000e+00
       25  1    1    2    0    0 +0.0000000000e+00 +0.0000000000e+00 -2.5479638017e+02 2.8380661611e+02 1.2500000000e+02 0.0000e+00 0.0000e+00
<mgrwt>
<rscale>  0 0.12500000E+03</rscale>
<asrwt>0</asrwt>
<pdfrwt beam="1">  1       21 0.22315566E-02 0.12500000E+03</pdfrwt>
<pdfrwt beam="2">  1       21 0.41430999E-01 0.12500000E+03</pdfrwt>
<totfact> 0.56829342E+06</totfact>
</mgrwt>
</event>
<event>
 3      1 +1.7592000e+01 1.25000000e+02 7.54677100e-03 1.23506900e-01
       21 -1    0    0  502  501 +0.0000000000e+00 +0.0000000000e+00 +3.7645054967e+01 3.7645054967e+01 0.0000000000e+00 0.0000e+00 -1.0000e+00
       21 -1    0    0  501  502 -0.0000000000e+00 -0.0000000000e+00 -1.0376528879e+02 1.0376528879e+02 0.0000000000e+00 0.0000e+00 -1.0000e+00
       25  1    1    2    0    0 +0.0000000000e+00 +0.0000000000e+00 -6.6120233820e+01 1.4141034375e+02 1.2500000000e+02 0.0000e+00 0.0000e+00
<mgrwt>
<rscale>  0 0.12500000E+03</rscale>
<asrwt>0</asrwt>
<pdfrwt beam="1">  1       21 0.57915470E-02 0.12500000E+03</pdfrwt>
<pdfrwt beam="2">  1       21 0.15963890E-01 0.12500000E+03</pdfrwt>
<totfact> 0.71855722E+06</totfact>
</mgrwt>
</event>
<event>
 3      1 +1.7592000e+01 1.25000000e+02 7.54677100e-03 1.23506900e-01
       21 -1    0    0  502  501 +0.0000000000e+00 +0.0000000000e+00 +2.2963515478e+02 2.2963515478e+02 0.0000000000e+00 0.0000e+00 1.0000e+00
       21 -1    0    0  501  502 -0.0000000000e+00 -0.0000000000e+00 -1.7010679413e+01 1.7010679413e+01 0.0000000000e+00 0.0000e+00 1.0000e+00
       25  1    1    2    0    0 +0.0000000000e+00 +0.0000000000e+00 +2.1262447536e+02 2.4664583419e+02 1.2500000000e+02 0.0000e+00 0.0000e+00
<mgrwt>
<rscale>  0 0.12500000E+03</rscale>
<asrwt>0</asrwt>
<pdfrwt beam="1">  1       21 0.35328483E-01 0.12500000E+03</pdfrwt>
<pdfrwt beam="2">  1       21 0.26170278E-02 0.12500000E+03</pdfrwt>
<totfact> 0.60195425E+06</totfact>
</mgrwt>
</event>
<event>
 3      1 +1.7592000e+01 1.25000000e+02 7.54677100e-03 1.23506900e-01
       21 -1    0    0  502  501 +0.0000000000e+00 +0.0000000000e+00 +1.4220994378e+02 1.4220994378e+02 0.0000000000e+00 0.0000e+00 -1.0000e+00
       21 -1    0    0  501  502 -0.0000000000e+00 -0.0000000000e+00 -2.7468191719e+01 2.7468191719e+01 0.0000000000e+00 0.0000e+00 -1.0000e+00
       25  1    1    2    0    0 +0.0000000000e+00 +0.0000000000e+00 +1.1474175206e+02 1.6967813549e+02 1.2500000000e+02 0.0000e+00 0.0000e+00
<mgrwt>
<rscale>  0 0.12500000E+03</rscale>
<asrwt>0</asrwt>
<pdfrwt beam="1">  1       21 0.21878453E-01 0.12500000E+03</pdfrwt>
<pdfrwt beam="2">  1       21 0.42258757E-02 0.12500000E+03</pdfrwt>
<totfact> 0.68355811E+06</totfact>
</mgrwt>
</event>
<event>
 3      1 +1.7592000e+01 1.25000000e+02 7.54677100e-03 1.23506900e-01
       21 -1    0    0  502  501 +0.0000000000e+00 +0.0000000000e+00 +4.4835618367e+02 4.4835618367e+02 0.0000000000e+00 0.0000e+00 -1.0000e+00
       21 -1    0    0  501  502 -0.0000000000e+00 -0.0000000000e+00 -8.7123812322e+00 8.7123812322e+00 0.0000000000e+00 0.0000e+00 -1.0000e+00
       25  1    1    2    0    0 +0.0000000000e+00 +0.0000000000e+00 +4.3964380244e+02 4.5706856491e+02 1.2500000000e+02 0.0000e+00 0.0000e+00
<mgrwt>
<rscale>  0 0.12500000E+03</rscale>
<asrwt>0</asrwt>
<pdfrwt beam="1">  1       21 0.68977856E-01 0.12500000E+03</pdfrwt>
<pdfrwt beam="2">  1       21 0.13403667E-02 0.12500000E+03</pdfrwt>
<totfact> 0.44472308E+06</totfact>
</mgrwt>
</event>
<event>
 3      1 +1.7592000e+01 1.25000000e+02 7.54677100e-03 1.23506900e-01
       21 -1    0    0  502  501 +0.0000000000e+00 +0.0000000000e+00 +8.4725390226e+00 8.4725390226e+00 0.0000000000e+00 0.0000e+00 -1.0000e+00
       21 -1    0    0  501  502 -0.0000000000e+00 -0.0000000000e+00 -4.6104833387e+02 4.6104833387e+02 0.0000000000e+00 0.0000e+00 -1.0000e+00
       25  1    1    2    0    0 +0.0000000000e+00 +0.0000000000e+00 -4.5257579485e+02 4.6952087289e+02 1.2500000000e+02 0.0000e+00 0.0000e+00
<mgrwt>
<rscale>  0 0.12500000E+03</rscale>
<asrwt>0</asrwt>
<pdfrwt beam="1">  1       21 0.13034672E-02 0.12500000E+03</pdfrwt>
<pdfrwt beam="2">  1       21 0.70930530E-01 0.12500000E+03</pdfrwt>
<totfact> 0.43746758E+06</totfact>
</mgrwt>
</event>
<event>
 3      1 +1.7592000e+01 1.25000000e+02 7.54677100e-03 1.23506900e-01
       21 -1    0    0  502  501 +0.0000000000e+00 +0.0000000000e+00 +7.9772205133e+01 7.9772205133e+01 0.0000000000e+00 0.0000e+00 1.0000e+00
       21 -1    0    0  501  502 -0.0000000000e+00 -0.0000000000e+00 -4.8967556976e+01 4.8967556976e+01 0.0000000000e+00 0.0000e+00 1.0000e+00
       25  1    1    2    0    0 +0.0000000000e+00 +0.0000000000e+00 +3.0804648157e+01 1.2873976211e+02 1.2500000000e+02 0.0000e+00 0.0000e+00
<mgrwt>
<rscale>  0 0.12500000E+03</rscale>
<asrwt>0</asrwt>
<pdfrwt beam="1">  1       21 0.12272647E-01 0.12500000E+03</pdfrwt>
<pdfrwt beam="2">  1       21 0.75334703E-02 0.12500000E+03</pdfrwt>
<totfact> 0.73533855E+06</totfact>
</mgrwt>
</event>
<event>
 3      1 +1.7592000e+01 1.25000000e+02 7.54677100e-03 1.23506900e-01
       21 -1    0    0  502  501 +0.0000000000e+00 +0.0000000000e+00 +2.5842645267e+01 2.5842645267e+01 0.0000000000e+00 0.0000e+00 -1.0000e+00
       21 -1    0    0  501  502 -0.0000000000e+00 -0.0000000000e+00 -1.5115519172e+02 1.5115519172e+02 0.0000000000e+00 0.0000e+00 -1.0000e+00
       25  1    1    2    0    0 +0.0000000000e+00 +0.0000000000e+00 -1.2531254646e+02 1.7699783699e+02 1.2500000000e+02 0.0000e+00 0.0000e+00
<mgrwt>
<rscale>  0 0.12500000E+03</rscale>
<asrwt>0</asrwt>
<pdfrwt beam="1">  1       21 0.39757916E-02 0.12500000E+03</pdfrwt>
<pdfrwt beam="2">  1       21 0.23254645E-01 0.12500000E+03</pdfrwt>
<totfact> 0.67497615E+06</totfact>
</mgrwt>
</event>
<event>
 3      1 +1.7592000e+01 1.25000000e+02 7.54677100e-03 1.23506900e-01
       21 -1    0    0  502  501 +0.0000000000e+00 +0.0000000000e+00 +9.3075430593e+00 9.3075430593e+00 0.0000000000e+00 0.0000e+00 1.0000e+00
       21 -1    0    0  501  502 -0.0000000000e+00 -0.0000000000e+00 -4.1968648172e+02 4.1968648172e+02 0.0000000000e+00 0.0000e+00 1.0000e+00
       25  1    1    2    0    0 +0.0000000000e+00 +0.0000000000e+00 -4.1037893866e+02 4.2899402478e+02 1.2500000000e+02 0.0000e+00 0.0000e+00
<mgrwt>
<rscale>  0 0.12500000E+03</rscale>
<asrwt>0</asrwt>
<pdfrwt beam="1">  1       21 0.14319296E-02 0.12500000E+03</pdfrwt>
<pdfrwt beam="2">  1       21 0.64567154E-01 0.12500000E+03</pdfrwt>
<totfact> 0.46175844E+06</totfact>
</mgrwt>
</event>
<event>
 3      1 +1.7592000e+01 1.25000000e+02 7.54677100e-03 1.23506900e-01
       21 -1    0    0  502  501 +0.0000000000e+00 +0.0000000000e+00 +1.1526991405e+02 1.1526991405e+02 0.0000000000e+00 0.0000e+00 1.0000e+00
       21 -1    0    0  501  502 -0.0000000000e+00 -0.0000000000e+00 -3.3887853846e+01 3.3887853846e+01 0.0000000000e+00 0.0000e+00 1.0000e+00
       25  1    1    2    0    0 +0.0000000000e+00 +0.0000000000e+00 +8.1382060201e+01 1.4915776789e+02 1.2500000000e+02 0.0000e+00 0.0000e+00
<mgrwt>
<rscale>  0 0.12500000E+03</rscale>
<asrwt>0</asrwt>
<pdfrwt beam="1">  1       21 0.17733833E-01 0.12500000E+03</pdfrwt>
<pdfrwt beam="2">  1       21 0.52135160E-02 0.12500000E+03</pdfrwt>
<totfact> 0.70865161E+06</totfact>
</mgrwt>
</event>
<event>
 3      1 +1.7592000e+01 1.25000000e+02 7.54677100e-03 1.23506900e-01
       21 -1    0    0  502  501 +0.0000000000e+00 +0.0000000000e+00 +7.3756962368e+02 7.3756962368e+02 0.0000000000e+00 0.0000e+00 1.0000e+00
       21 -1    0    0  501  502 -0.0000000000e+00 -0.0000000000e+00 -5.2961101902e+00 5.2961101902e+00 0.0000000000e+00 0.0000e+00 1.0000e+00
       25  1    1    2    0    0 +0.0000000000e+00 +0.0000000000e+00 +7.3227351349e+02 7.4286573387e+02 1.2500000000e+02 0.0000e+00 0.0000e+00
<mgrwt>
<rscale>  0 0.12500000E+03</rscale>
<asrwt>0</asrwt>
<pdfrwt beam="1">  1       21 0.11347217E+00 0.12500000E+03</pdfrwt>
<pdfrwt beam="2">  1       21 0.81478677E-03 0.12500000E+03</pdfrwt>
<totfact> 0.31321405E+06</totfact>
</mgrwt>
</event>
<event>
 3      1 +1.7592000e+01 1.25000000e+02 7.54677100e-03 1.23506900e-01
       21 -1    0    0  502  501 +0.0000000000e+00 +0.0000000000e+00 +2.5801790766e+03 2.5801790766e+03 0.0000000000e+00 0.0000e+00 1.0000e+00
       21 -1    0    0  501  502 -0.0000000000e+00 -0.0000000000e+00 -1.5139453054e+00 1.5139453054e+00 0.0000000000e+00 0.0000e+00 1.0000e+00
       25  1    1    2    0    0 +0.0000000000e+00 +0.0000000000e+00 +2.5786651312e+03 2.5816930219e+03 1.2500000000e+02 0.0000e+00 0.0000e+00
<mgrwt>
<rscale>  0 0.12500000E+03</rscale>
<asrwt>0</asrwt>
<pdfrwt beam="1">  1       21 0.39694711E+00 0.12500000E+03</pdfrwt>
<pdfrwt beam="2">  1       21 0.23291673E-03 0.12500000E+03</pdfrwt>
<totfact> 0.35469430E+05</totfact>
</mgrwt>
</event>
<event>
 3      1 +1.7592000e+01 1.25000000e+02 7.54677100e-03 1.23506900e-01
       21 -1    0    0  502  501 +0.0000000000e+00 +0.0000000000e+00 +3.3845195621e+02 3.3845195621e+02 0.0000000000e+00 0.0000e+00 -1.0000e+00
       21 -1    0    0  501  502 -0.0000000000e+00 -0.0000000000e+00 -1.1541519936e+01 1.1541519936e+01 0.0000000000e+00 0.0000e+00 -1.0000e+00
       25  1    1    2    0    0 +0.0000000000e+00 +0.0000000000e+00 +3.2691043628e+02 3.4999347615e+02 1.2500000000e+02 0.0000e+00 0.0000e+00
<mgrwt>
<rscale>  0 0.12500000E+03</rscale>
<asrwt>0</asrwt>
<pdfrwt beam="1">  1       21 0.52069524E-01 0.12500000E+03</pdfrwt>
<pdfrwt beam="2">  1       21 0.17756187E-02 0.12500000E+03</pdfrwt>
<totfact> 0.51538917E+06</totfact>
</mgrwt>
</event>
<event>
 3      1 +1.7592000e+01 1.25000000e+02 7.54677100e-03 1.23506900e-01
       21 -1    0    0  502  501 +0.0000000000e+00 +0.0000000000e+00 +1.4005972787e+03 1.4005972787e+03 0.0000000000e+00 0.0000e+00 -1.0000e+00
       21 -1    0    0  501  502 -0.0000000000e+00 -0.0000000000e+00 -2.7889887118e+00 2.7889887118e+00 0.0000000000e+00 0.0000e+00 -1.0000e+00
       25  1    1    2    0    0 +0.0000000000e+00 +0.0000000000e+00 +1.3978082900e+03 1.4033862674e+03 1.2500000000e+02 0.0000e+00 0.0000e+00
<mgrwt>
<rscale>  0 0.12500000E+03</rscale>
<asrwt>0</asrwt>
<pdfrwt beam="1">  1       21 0.21547594E+00 0.12500000E+03</pdfrwt>
<pdfrwt beam="2">  1       21 0.42907631E-03 0.12500000E+03</pdfrwt>
<totfact> 0.15489814E+06</totfact>
</mgrwt>
</event>
<event>
 3      1 +1.7592000e+01 1.25000000e+02 7.54677100e-03 1.23506900e-01
       21 -1    0    0  502  501 +0.0000000000e+00 +0.0000000000e+00 +1.3148994490e+00 1.3148994490e+00 0.0000000000e+00 0.0000e+00 1.0000e+00
       21 -1    0    0  501  502 -0.0000000000e+00 -0.0000000000e+00 -2.9707594773e+03 2.9707594773e+03 0.0000000000e+00 0.0000e+00 1.0000e+00
       25  1    1    2    0    0 +0.0000000000e+00 +0.0000000000e+00 -2.9694445779e+03 2.9720743768e+03 1.2500000000e+02 0.0000e+00 0.0000e+00
<mgrwt>
<rscale>  0 0.12500000E+03</rscale>
<asrwt>0</asrwt>
<pdfrwt beam="1">  1       21 0.20229137E-03 0.12500000E+03</pdfrwt>
<pdfrwt beam="2">  1       21 0.45704184E+00 0.12500000E+03</pdfrwt>
<totfact> 0.18279753E+05</totfact>
</mgrwt>
</event>
<event>
 3      1 +1.7592000e+01 1.25000000e+02 7.54677100e-03 1.23506900e-01
       21 -1    0    0  502  501 +0.0000000000e+00 +0.0000000000e+00 +1.5045911827e+02 1.5045911827e+02 0.0000000000e+00 0.0000e+00 1.0000e+00
       21 -1    0    0  501  502 -0.0000000000e+00 -0.0000000000e+00 -2.5962201858e+01 2.5962201858e+01 0.0000000000e+00 0.0000e+00 1.0000e+00
       25  1    1    2    0    0 +0.0000000000e+00 +0.0000000000e+00 +1.2449691641e+02 1.7642132013e+02 1.2500000000e+02 0.0000e+00 0.0000e+00
<mgrwt>
<rscale>  0 0.12500000E+03</rscale>
<asrwt>0</asrwt>
<pdfrwt beam="1">  1       21 0.23147556E-01 0.12500000E+03</pdfrwt>
<pdfrwt beam="2">  1       21 0.39941850E-02 0.12500000E+03</pdfrwt>
<totfact> 0.67564462E+06</totfact>
</mgrwt>
</event>
<event>
 3      1 +1.7592000e+01 1.25000000e+02 7.54677100e-03 1.23506900e-01
       21 -1    0    0  502  501 +0.0000000000e+00 +0.0000000000e+00 +7.0853076712e+01 7.0853076712e+01 0.0000000000e+00 0.0000e+00 1.0000e+00
       21 -1    0    0  501  502 -0.0000000000e+00 -0.0000000000e+00 -5.5131691964e+01 5.5131691964e+01 0.0000000000e+00 0.0000e+00 1.0000e+00
       25  1    1    2    0    0 +0.0000000000e+00 +0.0000000000e+00 +1.5721384749e+01 1.2598476868e+02 1.2500000000e+02 0.0000e+00 0.0000e+00
<mgrwt>
<rscale>  0 0.12500000E+03</rscale>
<asrwt>0</asrwt>
<pdfrwt beam="1">  1       21 0.10900473E-01 0.12500000E+03</pdfrwt>
<pdfrwt beam="2">  1       21 0.84817987E-02 0.12500000E+03</pdfrwt>
<totfact> 0.73908139E+06</totfact>
</mgrwt>
</event>
<event>
 3      1 +1.7592000e+01 1.25000000e+02 7.54677100e-03 1.23506900e-01
       21 -1    0    0  502  501 +0.0000000000e+00 +0.0000000000e+00 +2.2550246649e+02 2.2550246649e+02 0.0000000000e+00 0.0000e+00 -1.0000e+00
       21 -1    0    0  501  502 -0.0000000000e+00 -0.0000000000e+00 -1.7322426937e+01 1.7322426937e+01 0.0000000000e+00 0.0000e+00 -1.0000e+00
       25  1    1    2    0    0 +0.0000000000e+00 +0.0000000000e+00 +2.0818003955e+02 2.4282489343e+02 1.2500000000e+02 0.0000e+00 0.0000e+00
<mgrwt>
<rscale>  0 0.12500000E+03</rscale>
<asrwt>0</asrwt>
<pdfrwt beam="1">  1       21 0.34692685E-01 0.12500000E+03</pdfrwt>
<pdfrwt beam="2">  1       21 0.26649889E-02 0.12500000E+03</pdfrwt>
<totfact> 0.60560371E+06</totfact>
</mgrwt>
</event>
<event>
 3      1 +1.7592000e+01 1.25000000e+02 7.54677100e-03 1.23506900e-01
       21 -1    0    0  502  501 +0.0000000000e+00 +0.0000000000e+00 +4.1603152055e+02 4.1603152055e+02 0.0000000000e+00 0.0000e+00 -1.0000e+00
       21 -1    0    0  501  502 -0.0000000000e+00 -0.0000000000e+00 -9.3893126051e+00 9.3893126051e+00 0.0000000000e+00 0.0000e+00 -1.0000e+00
       25  1    1    2    0    0 +0.0000000000e+00 +0.0000000000e+00 +4.0664220794e+02 4.2542083315e+02 1.2500000000e+02 0.0000e+00 0.0000e+00
<mgrwt>
<rscale>  0 0.12500000E+03</rscale>
<asrwt>0</asrwt>
<pdfrwt beam="1">  1       21 0.64004835E-01 0.12500000E+03</pdfrwt>
<pdfrwt beam="2">  1       21 0.14445100E-02 0.12500000E+03</pdfrwt>
<totfact> 0.46399695E+06</totfact>
</mgrwt>
</event>
<event>
 3      1 +1.7592000e+01 1.25000000e+02 7.54677100e-03 1.23506900e-01
       21 -1    0    0  502  501 +0.0000000000e+00 +0.0000000000e+00 +3.1348744890e+02 3.1348744890e+02 0.0000000000e+00 0.0000e+00 1.0000e+00
       21 -1    0    0  501  502 -0.0000000000e+00 -0.0000000000e+00 -1.2460626458e+01 1.2460626458e+01 0.0000000000e+00 0.0000e+00 1.0000e+00
       25  1    1    2    0    0 +0.0000000000e+00 +0.0000000000e+00 +3.0102682244e+02 3.2594807536e+02 1.2500000000e+02 0.0000e+00 0.0000e+00
<mgrwt>
<rscale>  0 0.12500000E+03</rscale>
<asrwt>0</asrwt>
<pdfrwt beam="1">  1       21 0.48228832E-01 0.12500000E+03</pdfrwt>
<pdfrwt beam="2">  1       21 0.19170197E-02 0.12500000E+03</pdfrwt>
<totfact> 0.53365331E+06</totfact>
</mgrwt>
</event>
<event>
 3      1 +1.7592000e+01 1.25000000e+02 7.54677100e-03 1.23506900e-01
       21 -1    0    0  502  501 +0.0000000000e+00 +0.0000000000e+00 +6.2119740815e+01 6.2119740815e+01 0.0000000000e+00 0.0000e+00 1.0000e+00
       21 -1    0    0  501  502 -0.0000000000e+00 -0.0000000000e+00 -6.2882586900e+01 6.2882586900e+01 0.0000000000e+00 0.0000e+00 1.0000e+00
       25  1    1    2    0    0 +0.0000000000e+00 +0.0000000000e+00 -7.6284608580e-01 1.2500232771e+02 1.2500000000e+02 0.0000e+00 0.0000e+00
<mgrwt>
<rscale>  0 0.12500000E+03</rscale>
<asrwt>0</asrwt>
<pdfrwt beam="1">  1       21 0.95568832E-02 0.12500000E+03</pdfrwt>
<pdfrwt beam="2">  1       21 0.96742441E-02 0.12500000E+03</pdfrwt>
<totfact> 0.74043267E+06</totfact>
</mgrwt>
</event>
<event>
 3      1 +1.7592000e+01 1.25000000e+02 7.54677100e-03 1.23506900e-01
       21 -1    0    0  502  501 +0.0000000000e+00 +0.0000000000e+00 +9.2839624866e+01 9.2839624866e+01 0.0000000000e+00 0.0000e+00 -1.0000e+00
       21 -1    0    0  501  502 -0.0000000000e+00 -0.0000000000e+00 -4.2075245410e+01 4.2075245410e+01 0.0000000000e+00 0.0000e+00 -1.0000e+00
       25  1    1    2    0    0 +0.0000000000e+00 +0.0000000000e+00 +5.0764379457e+01 1.3491487028e+02 1.2500000000e+02 0.0000e+00 0.0000e+00
<mgrwt>
<rscale>  0 0.12500000E+03</rscale>
<asrwt>0</asrwt>
<pdfrwt beam="1">  1       21 0.14283019E-01 0.12500000E+03</pdfrwt>
<pdfrwt beam="2">  1       21 0.64731147E-02 0.12500000E+03</pdfrwt>
<totfact> 0.72707745E+06</totfact>
</mgrwt>
</event>
<event>
 3      1 +1.7592000e+01 1.25000000e+02 7.54677100e-03 1.23506900e-01
       21 -1    0    0  502  501 +0.0000000000e+00 +0.0000000000e+00 +1.3939703222e+02 1.3939703222e+02 0.0000000000e+00 0.0000e+00 1.0000e+00
       21 -1    0    0  501  502 -0.0000000000e+00 -0.0000000000e+00 -2.8022476073e+01 2.8022476073e+01 0.0000000000e+00 0.0000e+00 1.0000e+00
       25  1    1    2    0    0 +0.0000000000e+00 +0.0000000000e+00 +1.1137455614e+02 1.6741950829e+02 1.2500000000e+02 0.0000e+00 0.0000e+00
<mgrwt>
<rscale>  0 0.12500000E+03</rscale>
<asrwt>0</asrwt>
<pdfrwt beam="1">  1       21 0.21445697E-01 0.12500000E+03</pdfrwt>
<pdfrwt beam="2">  1       21 0.43111502E-02 0.12500000E+03</pdfrwt>
<totfact> 0.68624085E+06</totfact>
</mgrwt>
</event>
<event>
 3      1 +1.7592000e+01 1.25000000e+02 7.54677100e-03 1.23506900e-01
       21 -1    0    0  502  501 +0.0000000000e+00 +0.0000000000e+00 +6.0813611967e+00 6.0813611967e+00 0.0000000000e+00 0.0000e+00 -1.0000e+00
       21 -1    0    0  501  502 -0.0000000000e+00 -0.0000000000e+00 -6.4233152310e+02 6.4233152310e+02 0.0000000000e+00 0.0000e+00 -1.0000e+00
       25  1    1    2    0    0 +0.0000000000e+00 +0.0000000000e+00 -6.3625016191e+02 6.4841288430e+02 1.2500000000e+02 0.0000e+00 0.0000e+00
<mgrwt>
<rscale>  0 0.12500000E+03</rscale>
<asrwt>0</asrwt>
<pdfrwt beam="1">  1       21 0.93559401E-03 0.12500000E+03</pdfrwt>
<pdfrwt beam="2">  1       21 0.98820237E-01 0.12500000E+03</pdfrwt>
<totfact> 0.34990625E+06</totfact>
</mgrwt>
</event>
<event>
 3      1 +1.7592000e+01 1.25000000e+02 7.54677100e-03 1.23506900e-01
       21 -1    0    0  502  501 +0.0000000000e+00 +0.0000000000e+00 +6.0995269493e+02 6.0995269493e+02 0.0000000000e+00 0.0000e+00 -1.0000e+00
       21 -1    0    0  501  502 -0.0000000000e+00 -0.0000000000e+00 -6.4041851646e+00 6.4041851646e+00 0.0000000000e+00 0.0000e+00 -1.0000e+00
       25  1    1    2    0    0 +0.0000000000e+00 +0.0000000000e+00 +6.0354850977e+02 6.1635688010e+02 1.2500000000e+02 0.0000e+00 0.0000e+00
<mgrwt>
<rscale>  0 0.12500000E+03</rscale>
<asrwt>0</asrwt>
<pdfrwt beam="1">  1       21 0.93838830E-01 0.12500000E+03</pdfrwt>
<pdfrwt beam="2">  1       21 0.98525974E-03 0.12500000E+03</pdfrwt>
<totfact> 0.36363219E+06</totfact>
</mgrwt>
</event>
<event>
 3      1 +1.7592000e+01 1.25000000e+02 7.54677100e-03 1.23506900e-01
       21 -1    0    0  502  501 +0.0000000000e+00 +0.0000000000e+00 +2.8002761163e+01 2.8002761163e+01 0.0000000000e+00 0.0000e+00 1.0000e+00
       21 -1    0    0  501  502 -0.0000000000e+00 -0.0000000000e+00 -1.3949517254e+02 1.3949517254e+02 0.0000000000e+00 0.0000e+00 1.0000e+00
       25  1    1    2    0    0 +0.0000000000e+00 +0.0000000000e+00 -1.1149241137e+02 1.6749793370e+02 1.2500000000e+02 0.0000e+00 0.0000e+00
<mgrwt>
<rscale>  0 0.12500000E+03</rscale>
<asrwt>0</asrwt>
<pdfrwt beam="1">  1       21 0.43081170E-02 0.12500000E+03</pdfrwt>
<pdfrwt beam="2">  1       21 0.21460796E-01 0.12500000E+03</pdfrwt>
<totfact> 0.68614737E+06</totfact>
</mgrwt>
</event>
<event>
 3      1 +1.7592000e+01 1.25000000e+02 7.54677100e-03 1.23506900e-01
       21 -1    0    0  502  501 +0.0000000000e+00 +0.0000000000e+00 +7.9240375388e+00 7.9240375388e+00 0.0000000000e+00 0.0000e+00 -1.0000e+00
       21 -1    0    0  501  502 -0.0000000000e+00 -0.0000000000e+00 -4.9296207658e+02 4.9296207658e+02 0.0000000000e+00 0.0000e+00 -1.0000e+00
       25  1    1    2    0    0 +0.0000000000e+00 +0.0000000000e+00 -4.8503803904e+02 5.0088611411e+02 1.2500000000e+02 0.0000e+00 0.0000e+00
<mgrwt>
<rscale>  0 0.12500000E+03</rscale>
<asrwt>0</asrwt>
<pdfrwt beam="1">  1       21 0.12190825E-02 0.12500000E+03</pdfrwt>
<pdfrwt beam="2">  1       21 0.75840331E-01 0.12500000E+03</pdfrwt>
<totfact> 0.41996051E+06</totfact>
</mgrwt>
</event>
<event>
 3      1 +1.7592000e+01 1.25000000e+02 7.54677100e-03 1.23506900e-01
       21 -1    0    0  502  501 +0.0000000000e+00 +0.0000000000e+00 +4.8832045648e+01 4.8832045648e+01 0.0000000000e+00 0.0000e+00 -1.0000e+00
       21 -1    0    0  501  502 -0.0000000000e+00 -0.0000000000e+00 -7.9993576925e+01 7.9993576925e+01 0.0000000000e+00 0.0000e+00 -1.0000e+00
       25  1    1    2    0    0 +0.0000000000e+00 +0.0000000000e+00 -3.1161531277e+01 1.2882562257e+02 1.2500000000e+02 0.0000e+00 0.0000e+00
<mgrwt>
<rscale>  0 0.12500000E+03</rscale>
<asrwt>0</asrwt>
<pdfrwt beam="1">  1       21 0.75126224E-02 0.12500000E+03</pdfrwt>
<pdfrwt beam="2">  1       21 0.12306704E-01 0.12500000E+03</pdfrwt>
<totfact> 0.73522310E+06</totfact>
</mgrwt>
</event>
<event>
 3      1 +1.7592000e+01 1.25000000e+02 7.54677100e-03 1.23506900e-01
       21 -1    0    0  502  501 +0.0000000000e+00 +0.0000000000e+00 +7.6185802137e+01 7.6185802137e+01 0.0000000000e+00 0.0000e+00 1.0000e+00
       21 -1    0    0  501  502 -0.0000000000e+00 -0.0000000000e+00 -5.1272676673e+01 5.1272676673e+01 0.0000000000e+00 0.0000e+00 1.0000e+00
       25  1    1    2    0    0 +0.0000000000e+00 +0.0000000000e+00 +2.4913125464e+01 1.2745847881e+02 1.2500000000e+02 0.0000e+00 0.0000e+00
<mgrwt>
<rscale>  0 0.12500000E+03</rscale>
<asrwt>0</asrwt>
<pdfrwt beam="1">  1       21 0.11720893E-01 0.12500000E+03</pdfrwt>
<pdfrwt beam="2">  1       21 0.78881041E-02 0.12500000E+03</pdfrwt>
<totfact> 0.73706848E+06</totfact>
</mgrwt>
</event>
<event>
 3      1 +1.7592000e+01 1.25000000e+02 7.54677100e-03 1.23506900e-01
       21 -1    0    0  502  501 +0.0000000000e+00 +0.0000000000e+00 +1.7721311911e+00 1.7721311911e+00 0.0000000000e+00 0.0000e+00 -1.0000e+00
       21 -1    0    0  501  502 -0.0000000000e+00 -0.0000000000e+00 -2.2042668284e+03 2.2042668284e+03 0.0000000000e+00 0.0000e+00 -1.0000e+00
       25  1    1    2    0    0 +0.0000000000e+00 +0.0000000000e+00 -2.2024946972e+03 2.2060389596e+03 1.2500000000e+02 0.0000e+00 0.0000e+00
<mgrwt>
<rscale>  0 0.12500000E+03</rscale>
<asrwt>0</asrwt>
<pdfrwt beam="1">  1       21 0.27263576E-03 0.12500000E+03</pdfrwt>
<pdfrwt beam="2">  1       21 0.33911774E+00 0.12500000E+03</pdfrwt>
<totfact> 0.61079679E+05</totfact>
</mgrwt>
</event>
<event>
 3      1 +1.7592000e+01 1.25000000e+02 7.54677100e-03 1.23506900e-01
       21 -1    0    0  502  501 +0.0000000000e+00 +0.0000000000e+00 +2.3911031279e+01 2.3911031279e+01 0.0000000000e+00 0.0000e+00 -1.0000e+00
       21 -1    0    0  501  502 -0.0000000000e+00 -0.0000000000e+00 -1.6336601941e+02 1.6336601941e+02 0.0000000000e+00 0.0000e+00 -1.0000e+00
       25  1    1    2    0    0 +0.0000000000e+00 +0.0000000000e+00 -1.3945498813e+02 1.8727705069e+02 1.2500000000e+02 0.0000e+00 0.0000e+00
<mgrwt>
<rscale>  0 0.12500000E+03</rscale>
<asrwt>0</asrwt>
<pdfrwt beam="1">  1       21 0.36786199E-02 0.12500000E+03</pdfrwt>
<pdfrwt beam="2">  1       21 0.25133235E-01 0.12500000E+03</pdfrwt>
<totfact> 0.66326379E+06</totfact>
</mgrwt>
</event>
<event>
 3      1 +1.7592000e+01 1.25000000e+02 7.54677100e-03 1.23506900e-01
       21 -1    0    0  502  501 +0.0000000000e+00 +0.0000000000e+00 +1.9446314884e+02 1.9446314884e+02 0.0000000000e+00 0.0000e+00 -1.0000e+00
       21 -1    0    0  501  502 -0.0000000000e+00 -0.0000000000e+00 -2.0087353431e+01 2.0087353431e+01 0.0000000000e+00 0.0000e+00 -1.0000e+00
       25  1    1    2    0    0 +0.0000000000e+00 +0.0000000000e+00 +1.7437579541e+02 2.1455050227e+02 1.2500000000e+02 0.0000e+00 0.0000e+00
<mgrwt>
<rscale>  0 0.12500000E+03</rscale>
<asrwt>0</asrwt>
<pdfrwt beam="1">  1       21 0.29917406E-01 0.12500000E+03</pdfrwt>
<pdfrwt beam="2">  1       21 0.30903622E-02 0.12500000E+03</pdfrwt>
<totfact> 0.63383929E+06</totfact>
</mgrwt>
</event>
<event>
 3      1 +1.7592000e+01 1.25000000e+02 7.54677100e-03 1.23506900e-01
       21 -1    0    0  502  501 +0.0000000000e+00 +0.0000000000e+00 +6.7869974927e+02 6.7869974927e+02 0.0000000000e+00 0.0000e+00 -1.0000e+00
       21 -1    0    0  501  502 -0.0000000000e+00 -0.0000000000e+00 -5.7554905600e+00 5.7554905600e+00 0.0000000000e+00 0.0000e+00 -1.0000e+00
       25  1    1    2    0    0 +0.0000000000e+00 +0.0000000000e+00 +6.7294425871e+02 6.8445523983e+02 1.2500000000e+02 0.0000e+00 0.0000e+00
<mgrwt>
<rscale>  0 0.12500000E+03</rscale>
<asrwt>0</asrwt>
<pdfrwt beam="1">  1       21 0.10441528E+00 0.12500000E+03</pdfrwt>
<pdfrwt beam="2">  1       21 0.88546062E-03 0.12500000E+03</pdfrwt>
<totfact> 0.33518123E+06</totfact>
</mgrwt>
</event>
<event>
 3      1 +1.7592000e+01 1.25000000e+02 7.54677100e-03 1.23506900e-01
       21 -1    0    0  502  501 +0.0000000000e+00 +0.0000000000e+00 +6.2314477188e+01 6.2314477188e+01 0.0000000000e+00 0.0000e+00 -1.0000e+00
       21 -1    0    0  501  502 -0.0000000000e+00 -0.0000000000e+00 -6.2686075151e+01 6.2686075151e+01 0.0000000000e+00 0.0000e+00 -1.0000e+00
       25  1    1    2    0    0 +0.0000000000e+00 +0.0000000000e+00 -3.7159796392e-01 1.2500055234e+02 1.2500000000e+02 0.0000e+00 0.0000e+00
<mgrwt>
<rscale>  0 0.12500000E+03</rscale>
<asrwt>0</asrwt>
<pdfrwt beam="1">  1       21 0.95868426E-02 0.12500000E+03</pdfrwt>
<pdfrwt beam="2">  1       21 0.96440116E-02 0.12500000E+03</pdfrwt>
<totfact> 0.74043507E+06</totfact>
</mgrwt>
</event>
<event>
 3      1 +1.7592000e+01 1.25000000e+02 7.54677100e-03 1.23506900e-01
       21 -1    0    0  502  501 +0.0000000000e+00 +0.0000000000e+00 +4.6314205330e+02 4.6314205330e+02 0.0000000000e+00 0.0000e+00 -1.0000e+00
       21 -1    0    0  501  502 -0.0000000000e+00 -0.0000000000e+00 -8.4342373408e+00 8.4342373408e+00 0.0000000000e+00 0.0000e+00 -1.0000e+00
       25  1    1    2    0    0 +0.0000000000e+00 +0.0000000000e+00 +4.5470781595e+02 4.7157629064e+02 1.2500000000e+02 0.0000e+00 0.0000e+00
<mgrwt>
<rscale>  0 0.12500000E+03</rscale>
<asrwt>0</asrwt>
<pdfrwt beam="1">  1       21 0.71252604E-01 0.12500000E+03</pdfrwt>
<pdfrwt beam="2">  1       21 0.12975753E-02 0.12500000E+03</pdfrwt>
<totfact> 0.43628728E+06</totfact>
</mgrwt>
</event>
<event>
 3      1 +1.7592000e+01 1.25000000e+02 7.54677100e-03 1.23506900e-01
       21 -1    0    0  502  501 +0.0000000000e+00 +0.0000000000e+00 +3.4067174666e+02 3.4067174666e+02 0.0000000000e+00 0.0000e+00 -1.0000e+00
       21 -1    0    0  501  502 -0.0000000000e+00 -0.0000000000e+00 -1.1466316295e+01 1.1466316295e+01 0.0000000000e+00 0.0000e+00 -1.0000e+00
       25  1    1    2    0    0 +0.0000000000e+00 +0.0000000000e+00 +3.2920543036e+02 3.5213806295e+02 1.2500000000e+02 0.0000e+00 0.0000e+00
<mgrwt>
<rscale>  0 0.12500000E+03</rscale>
<asrwt>0</asrwt>
<pdfrwt beam="1">  1       21 0.52411030E-01 0.12500000E+03</pdfrwt>
<pdfrwt beam="2">  1       21 0.17640489E-02 0.12500000E+03</pdfrwt>
<totfact> 0.51380920E+06</totfact>
</mgrwt>
</event>
<event>
 3      1 +1.7592000e+01 1.25000000e+02 7.54677100e-03 1.23506900e-01
       21 -1    0    0  502  501 +0.0000000000e+00 +0.0000000000e+00 +1.4738547768e+02 1.4738547768e+02 0.0000000000e+00 0.0000e+00 -1.0000e+00
       21 -1    0    0  501  502 -0.0000000000e+00 -0.0000000000e+00 -2.6503628861e+01 2.6503628861e+01 0.0000000000e+00 0.0000e+00 -1.0000e+00
       25  1    1    2    0    0 +0.0000000000e+00 +0.0000000000e+00 +1.2088184882e+02 1.7388910654e+02 1.2500000000e+02 0.0000e+00 0.0000e+00
<mgrwt>
<rscale>  0 0.12500000E+03</rscale>
<asrwt>0</asrwt>
<pdfrwt beam="1">  1       21 0.22674688E-01 0.12500000E+03</pdfrwt>
<pdfrwt beam="2">  1       21 0.40774815E-02 0.12500000E+03</pdfrwt>
<totfact> 0.67859569E+06</totfact>
</mgrwt>
</event>
<event>
 3      1 +1.7592000e+01 1.25000000e+02 7.54677100e-03 1.23506900e-01
       21 -1    0    0  502  501 +0.0000000000e+00 +0.0000000000e+00 +5.7530415390e+02 5.7530415390e+02 0.0000000000e+00 0.0000e+00 1.0000e+00
       21 -1    0    0  501  502 -0.0000000000e+00 -0.0000000000e+00 -6.7898866600e+00 6.7898866600e+00 0.0000000000e+00 0.0000e+00 1.0000e+00
       25  1    1    2    0    0 +0.0000000000e+00 +0.0000000000e+00 +5.6851426724e+02 5.8209404056e+02 1.2500000000e+02 0.0000e+00 0.0000e+00
<mgrwt>
<rscale>  0 0.12500000E+03</rscale>
<asrwt>0</asrwt>
<pdfrwt beam="1">  1       21 0.88508293E-01 0.12500000E+03</pdfrwt>
<pdfrwt beam="2">  1       21 0.10445984E-02 0.12500000E+03</pdfrwt>
<totfact> 0.37915141E+06</totfact>
</mgrwt>
</event>
<event>
 3      1 +1.7592000e+01 1.25000000e+02 7.54677100e-03 1.23506900e-01
       21 -1    0    0  502  501 +0.0000000000e+00 +0.0000000000e+00 +1.0720879911e+02 1.0720879911e+02 0.0000000000e+00 0.0000e+00 -1.0000e+00
       21 -1    0    0  501  502 -0.0000000000e+00 -0.0000000000e+00 -3.6435908547e+01 3.6435908547e+01 0.0000000000e+00 0.0000e+00 -1.0000e+00
       25  1    1    2    0    0 +0.0000000000e+00 +0.0000000000e+00 +7.0772890567e+01 1.4364470766e+02 1.2500000000e+02 0.0000e+00 0.0000e+00
<mgrwt>
<rscale>  0 0.12500000E+03</rscale>
<asrwt>0</asrwt>
<pdfrwt beam="1">  1       21 0.16493661E-01 0.12500000E+03</pdfrwt>
<pdfrwt beam="2">  1       21 0.56055244E-02 0.12500000E+03</pdfrwt>
<totfact> 0.71566997E+06</totfact>
</mgrwt>
</event>
<event>
 3      1 +1.7592000e+01 1.25000000e+02 7.54677100e-03 1.23506900e-01
       21 -1    0    0  502  501 +0.0000000000e+00 +0.0000000000e+00 +1.0181740592e+01 1.0181740592e+01 0.0000000000e+00 0.0000e+00 1.0000e+00
       21 -1    0    0  501  502 -0.0000000000e+00 -0.0000000000e+00 -3.8365247715e+02 3.8365247715e+02 0.0000000000e+00 0.0000e+00 1.0000e+00
       25  1    1    2    0    0 +0.0000000000e+00 +0.0000000000e+00 -3.7347073656e+02 3.9383421775e+02 1.2500000000e+02 0.0000e+00 0.0000e+00
<mgrwt>
<rscale>  0 0.12500000E+03</rscale>
<asrwt>0</asrwt>
<pdfrwt beam="1">  1       21 0.15664216E-02 0.12500000E+03</pdfrwt>
<pdfrwt beam="2">  1       21 0.59023458E-01 0.12500000E+03</pdfrwt>
<totfact> 0.48453027E+06</totfact>
</mgrwt>
</event>
<event>
 3      1 +1.7592000e+01 1.25000000e+02 7.54677100e-03 1.23506900e-01
       21 -1    0    0  502  501 +0.0000000000e+00 +0.0000000000e+00 +8.1489744520e+01 8.1489744520e+01 0.0000000000e+00 0.0000e+00 -1.0000e+00
       21 -1    0    0  501  502 -0.0000000000e+00 -0.0000000000e+00 -4.7935479771e+01 4.7935479771e+01 0.0000000000e+00 0.0000e+00 -1.0000e+00
       25  1    1    2    0    0 +0.0000000000e+00 +0.0000000000e+00 +3.3554264748e+01 1.2942522429e+02 1.2500000000e+02 0.0000e+00 0.0000e+00
<mgrwt>
<rscale>  0 0.12500000E+03</rscale>
<asrwt>0</asrwt>
<pdfrwt beam="1">  1       21 0.12536884E-01 0.12500000E+03</pdfrwt>
<pdfrwt beam="2">  1       21 0.73746892E-02 0.12500000E+03</pdfrwt>
<totfact> 0.73441835E+06</totfact>
</mgrwt>
</event>
<event>
 3      1 +1.7592000e+01 1.25000000e+02 7.54677100e-03 1.23506900e-01
       21 -1    0    0  502  501 +0.0000000000e+00 +0.0000000000e+00 +1.0934934522e+03 1.0934934522e+03 0.0000000000e+00 0.0000e+00 -1.0000e+00
       21 -1    0    0  501  502 -0.0000000000e+00 -0.0000000000e+00 -3.5722664752e+00 3.5722664752e+00 0.0000000000e+00 0.0000e+00 -1.0000e+00
       25  1    1    2    0    0 +0.0000000000e+00 +0.0000000000e+00 +1.0899211857e+03 1.0970657186e+03 1.2500000000e+02 0.0000e+00 0.0000e+00
<mgrwt>
<rscale>  0 0.12500000E+03</rscale>
<asrwt>0</asrwt>
<pdfrwt beam="1">  1       21 0.16822950E+00 0.12500000E+03</pdfrwt>
<pdfrwt beam="2">  1       21 0.54958033E-03 0.12500000E+03</pdfrwt>
<totfact> 0.21316818E+06</totfact>
</mgrwt>
</event>
<event>
 3      1 +1.7592000e+01 1.25000000e+02 7.54677100e-03 1.23506900e-01
       21 -1    0    0  502  501 +0.0000000000e+00 +0.0000000000e+00 +1.0362250767e+01 1.0362250767e+01 0.0000000000e+00 0.0000e+00 -1.0000e+00
       21 -1    0    0  501  502 -0.0000000000e+00 -0.0000000000e+00 -3.7696925965e+02 3.7696925965e+02 0.0000000000e+00 0.0000e+00 -1.0000e+00
       25  1    1    2    0    0 +0.0000000000e+00 +0.0000000000e+00 -3.6660700888e+02 3.8733151041e+02 1.2500000000e+02 0.0000e+00 0.0000e+00
<mgrwt>
<rscale>  0 0.12500000E+03</rscale>
<asrwt>0</asrwt>
<pdfrwt beam="1">  1       21 0.15941925E-02 0.12500000E+03</pdfrwt>
<pdfrwt beam="2">  1       21 0.57995267E-01 0.12500000E+03</pdfrwt>
<totfact> 0.48893148E+06</totfact>
</mgrwt>
</event>
<event>
 3      1 +1.7592000e+01 1.25000000e+02 7.54677100e-03 1.23506900e-01
       21 -1    0    0  502  501 +0.0000000000e+00 +0.0000000000e+00 +1.0777130759e+02 1.0777130759e+02 0.0000000000e+00 0.0000e+00 -1.0000e+00
       21 -1    0    0  501  502 -0.0000000000e+00 -0.0000000000e+00 -3.6245732628e+01 3.6245732628e+01 0.0000000000e+00 0.0000e+00 -1.0000e+00
       25  1    1    2    0    0 +0.0000000000e+00 +0.0000000000e+00 +7.1525574964e+01 1.4401704022e+02 1.2500000000e+02 0.0000e+00 0.0000e+00
<mgrwt>
<rscale>  0 0.12500000E+03</rscale>
<asrwt>0</asrwt>
<pdfrwt beam="1">  1       21 0.16580201E-01 0.12500000E+03</pdfrwt>
<pdfrwt beam="2">  1       21 0.55762666E-02 0.12500000E+03</pdfrwt>
<totfact> 0.71519132E+06</totfact>
</mgrwt>
</event>
<event>
 3      1 +1.7592000e+01 1.25000000e+02 7.54677100e-03 1.23506900e-01
       21 -1    0    0  502  501 +0.0000000000e+00 +0.0000000000e+00 +2.6143311721e+02 2.6143311721e+02 0.0000000000e+00 0.0000e+00 -1.0000e+00
       21 -1    0    0  501  502 -0.0000000000e+00 -0.0000000000e+00 -1.4941680082e+01 1.4941680082e+01 0.0000000000e+00 0.0000e+00 -1.0000e+00
       25  1    1    2    0    0 +0.0000000000e+00 +0.0000000000e+00 +2.4649143712e+02 2.7637479729e+02 1.2500000000e+02 0.0000e+00 0.0000e+00
<mgrwt>
<rscale>  0 0.12500000E+03</rscale>
<asrwt>0</asrwt>
<pdfrwt beam="1">  1       21 0.40220476E-01 0.12500000E+03</pdfrwt>
<pdfrwt beam="2">  1       21 0.22987202E-02 0.12500000E+03</pdfrwt>
<totfact> 0.57478503E+06</totfact>
</mgrwt>
</event>
<event>
 3      1 +1.7592000e+01 1.25000000e+02 7.54677100e-03 1.23506900e-01
       21 -1    0    0  502  501 +0.0000000000e+00 +0.0000000000e+00 +7.5722121007e+01 7.5722121007e+01 0.0000000000e+00 0.0000e+00 1.0000e+00
       21 -1    0    0  501  502 -0.0000000000e+00 -0.0000000000e+00 -5.1586642688e+01 5.1586642688e+01 0.0000000000e+00 0.0000e+00 1.0000e+00
       25  1    1    2    0    0 +0.0000000000e+00 +0.0000000000e+00 +2.4135478319e+01 1.2730876370e+02 1.2500000000e+02 0.0000e+00 0.0000e+00
<mgrwt>
<rscale>  0 0.12500000E+03</rscale>
<asrwt>0</asrwt>
<pdfrwt beam="1">  1       21 0.11649557E-01 0.12500000E+03</pdfrwt>
<pdfrwt beam="2">  1       21 0.79364066E-02 0.12500000E+03</pdfrwt>
<totfact> 0.73727162E+06</totfact>
</mgrwt>
</event>
<event>
 3      1 +1.7592000e+01 1.25000000e+02 7.54677100e-03 1.23506900e-01
       21 -1    0    0  502  501 +0.0000000000e+00 +0.0000000000e+00 +6.4247966237e+00 6.4247966237e+00 0.0000000000e+00 0.0000e+00 -1.0000e+00
       21 -1    0    0  501  502 -0.0000000000e+00 -0.0000000000e+00 -6.0799589914e+02 6.0799589914e+02 0.0000000000e+00 0.0000e+00 -1.0000e+00
       25  1    1    2    0    0 +0.0000000000e+00 +0.0000000000e+00 -6.0157110252e+02 6.1442069576e+02 1.2500000000e+02 0.0000e+00 0.0000e+00
<mgrwt>
<rscale>  0 0.12500000E+03</rscale>
<asrwt>0</asrwt>
<pdfrwt beam="1">  1       21 0.98843024E-03 0.12500000E+03</pdfrwt>
<pdfrwt beam="2">  1       21 0.93537831E-01 0.12500000E+03</pdfrwt>
<totfact> 0.36448489E+06</totfact>
</mgrwt>
</event>
<event>
 3      1 +1.7592000e+01 1.25000000e+02 7.54677100e-03 1.23506900e-01
       21 -1    0    0  502  501 +0.0000000000e+00 +0.0000000000e+00 +2.4636562792e+00 2.4636562792e+00 0.0000000000e+00 0.0000e+00 1.0000e+00
       21 -1    0    0  501  502 -0.0000000000e+00 -0.0000000000e+00 -1.5855499133e+03 1.5855499133e+03 0.0000000000e+00 0.0000e+00 1.0000e+00
       25  1    1    2    0    0 +0.0000000000e+00 +0.0000000000e+00 -1.5830862570e+03 1.5880135696e+03 1.2500000000e+02 0.0000e+00 0.0000e+00
<mgrwt>
<rscale>  0 0.12500000E+03</rscale>
<asrwt>0</asrwt>
<pdfrwt beam="1">  1       21 0.37902379E-03 0.12500000E+03</pdfrwt>
<pdfrwt beam="2">  1       21 0.24393092E+00 0.12500000E+03</pdfrwt>
<totfact> 0.12737231E+06</totfact>
</mgrwt>
</event>
<event>
 3      1 +1.7592000e+01 1.25000000e+02 7.54677100e-03 1.23506900e-01
       21 -1    0    0  502  501 +0.0000000000e+00 +0.0000000000e+00 +1.9735329142e+02 1.9735329142e+02 0.0000000000e+00 0.0000e+00 -1.0000e+00
       21 -1    0    0  501  502 -0.0000000000e+00 -0.0000000000e+00 -1.9793183949e+01 1.9793183949e+01 0.0000000000e+00 0.0000e+00 -1.0000e+00
       25  1    1    2    0    0 +0.0000000000e+00 +0.0000000000e+00 +1.7756010747e+02 2.1714647537e+02 1.2500000000e+02 0.0000e+00 0.0000e+00
<mgrwt>
<rscale>  0 0.12500000E+03</rscale>
<asrwt>0</asrwt>
<pdfrwt beam="1">  1       21 0.30362044E-01 0.12500000E+03</pdfrwt>
<pdfrwt beam="2">  1       21 0.30451053E-02 0.12500000E+03</pdfrwt>
<totfact> 0.63115400E+06</totfact>
</mgrwt>
</event>
<event>
 3      1 +1.7592000e+01 1.25000000e+02 7.54677100e-03 1.23506900e-01
       21 -1    0    0  502  501 +0.0000000000e+00 +0.0000000000e+00 +6.6166814087e+02 6.6166814087e+02 0.0000000000e+00 0.0000e+00 -1.0000e+00
       21 -1    0    0  501  502 -0.0000000000e+00 -0.0000000000e+00 -5.9036392395e+00 5.9036392395e+00 0.0000000000e+00 0.0000e+00 -1.0000e+00
       25  1    1    2    0    0 +0.0000000000e+00 +0.0000000000e+00 +6.5576450163e+02 6.6757178011e+02 1.2500000000e+02 0.0000e+00 0.0000e+00
<mgrwt>
<rscale>  0 0.12500000E+03</rscale>
<asrwt>0</asrwt>
<pdfrwt beam="1">  1       21 0.10179504E+00 0.12500000E+03</pdfrwt>
<pdfrwt beam="2">  1       21 0.90825271E-03 0.12500000E+03</pdfrwt>
<totfact> 0.34198216E+06</totfact>
</mgrwt>
</event>
<event>
 3      1 +1.7592000e+01 1.25000000e+02 7.54677100e-03 1.23506900e-01
       21 -1    0    0  502  501 +0.0000000000e+00 +0.0000000000e+00 +1.7749780779e+02 1.7749780779e+02 0.0000000000e+00 0.0000e+00 -1.0000e+00
       21 -1    0    0  501  502 -0.0000000000e+00 -0.0000000000e+00 -2.2007314054e+01 2.2007314054e+01 0.0000000000e+00 0.0000e+00 -1.0000e+00
       25  1    1    2    0    0 +0.0000000000e+00 +0.0000000000e+00 +1.5549049374e+02 1.9950512185e+02 1.2500000000e+02 0.0000e+00 0.0000e+00
<mgrwt>
<rscale>  0 0.12500000E+03</rscale>
<asrwt>0</asrwt>
<pdfrwt beam="1">  1       21 0.27307354E-01 0.12500000E+03</pdfrwt>
<pdfrwt beam="2">  1       21 0.33857407E-02 0.12500000E+03</pdfrwt>
<totfact> 0.64980915E+06</totfact>
</mgrwt>
</event>
<event>
 3      1 +1.7592000e+01 1.25000000e+02 7.54677100e-03 1.23506900e-01
       21 -1    0    0  502  501 +0.0000000000e+00 +0.0000000000e+00 +6.2503716306e+02 6.2503716306e+02 0.0000000000e+00 0.0000e+00 -1.0000e+00
       21 -1    0    0  501  502 -0.0000000000e+00 -0.0000000000e+00 -6.2496283914e+00 6.2496283914e+00 0.0000000000e+00 0.0000e+00 -1.0000e+00
       25  1    1    2    0    0 +0.0000000000e+00 +0.0000000000e+00 +6.1878753467e+02 6.3128679146e+02 1.2500000000e+02 0.0000e+00 0.0000e+00
<mgrwt>
<rscale>  0 0.12500000E+03</rscale>
<asrwt>0</asrwt>
<pdfrwt beam="1">  1       21 0.96159514E-01 0.12500000E+03</pdfrwt>
<pdfrwt beam="2">  1       21 0.96148179E-03 0.12500000E+03</pdfrwt>
<totfact> 0.35714902E+06</totfact>
</mgrwt>
</event>
<event>
 3      1 +1.7592000e+01 1.25000000e+02 7.54677100e-03 1.23506900e-01
       21 -1    0    0  502  501 +0.0000000000e+00 +0.0000000000e+00 +7.7495211148e+02 7.7495211148e+02 0.0000000000e+00 0.0000e+00 1.0000e+00
       21 -1    0    0  501  502 -0.0000000000e+00 -0.0000000000e+00 -5.0406340497e+00 5.0406340497e+00 0.0000000000e+00 0.0000e+00 1.0000e+00
       25  1    1    2    0    0 +0.0000000000e+00 +0.0000000000e+00 +7.6991147743e+02 7.7999274553e+02 1.2500000000e+02 0.0000e+00 0.0000e+00
<mgrwt>
<rscale>  0 0.12500000E+03</rscale>
<asrwt>0</asrwt>
<pdfrwt beam="1">  1       21 0.11922331E+00 0.12500000E+03</pdfrwt>
<pdfrwt beam="2">  1       21 0.77548278E-03 0.12500000E+03</pdfrwt>
<totfact> 0.30036516E+06</totfact>
</mgrwt>
</event>
<event>
 3      1 +1.7592000e+01 1.25000000e+02 7.54677100e-03 1.23506900e-01
       21 -1    0    0  502  501 +0.0000000000e+00 +0.0000000000e+00 +6.1278178820e+01 6.1278178820e+01 0.0000000000e+00 0.0000e+00 -1.0000e+00
       21 -1    0    0  501  502 -0.0000000000e+00 -0.0000000000e+00 -6.3746182984e+01 6.3746182984e+01 0.0000000000e+00 0.0000e+00 -1.0000e+00
       25  1    1    2    0    0 +0.0000000000e+00 +0.0000000000e+00 -2.4680041644e+00 1.2502436180e+02 1.2500000000e+02 0.0000e+00 0.0000e+00
<mgrwt>
<rscale>  0 0.12500000E+03</rscale>
<asrwt>0</asrwt>
<pdfrwt beam="1">  1       21 0.94274121E-02 0.12500000E+03</pdfrwt>
<pdfrwt beam="2">  1       21 0.98071051E-02 0.12500000E+03</pdfrwt>
<totfact> 0.74040291E+06</totfact>
</mgrwt>
</event>
<event>
 3      1 +1.7592000e+01 1.25000000e+02 7.54677100e-03 1.23506900e-01
       21 -1    0    0  502  501 +0.0000000000e+00 +0.0000000000e+00 +1.5228106239e+02 1.5228106239e+02 0.0000000000e+00 0.0000e+00 1.0000e+00
       21 -1    0    0  501  502 -0.0000000000e+00 -0.0000000000e+00 -2.5651580956e+01 2.5651580956e+01 0.0000000000e+00 0.0000e+00 1.0000e+00
       25  1    1    2    0    0 +0.0000000000e+00 +0.0000000000e+00 +1.2662948143e+02 1.7793264335e+02 1.2500000000e+02 0.0000e+00 0.0000e+00
<mgrwt>
<rscale>  0 0.12500000E+03</rscale>
<asrwt>0</asrwt>
<pdfrwt beam="1">  1       21 0.23427855E-01 0.12500000E+03</pdfrwt>
<pdfrwt beam="2">  1       21 0.39463971E-02 0.12500000E+03</pdfrwt>
<totfact> 0.67389492E+06</totfact>
</mgrwt>
</event>
<event>
 3      1 +1.7592000e+01 1.25000000e+02 7.54677100e-03 1.23506900e-01
       21 -1    0    0  502  501 +0.0000000000e+00 +0.0000000000e+00 +8.1866361447e+01 8.1866361447e+01 0.0000000000e+00 0.0000e+00 1.0000e+00
       21 -1    0    0  501  502 -0.0000000000e+00 -0.0000000000e+00 -4.7714958024e+01 4.7714958024e+01 0.0000000000e+00 0.0000e+00 1.0000e+00
       25  1    1    2    0    0 +0.0000000000e+00 +0.0000000000e+00 +3.4151403424e+01 1.2958131947e+02 1.2500000000e+02 0.0000e+00 0.0000e+00
<mgrwt>
<rscale>  0 0.12500000E+03</rscale>
<asrwt>0</asrwt>
<pdfrwt beam="1">  1       21 0.12594825E-01 0.12500000E+03</pdfrwt>
<pdfrwt beam="2">  1       21 0.73407628E-02 0.12500000E+03</pdfrwt>
<totfact> 0.73420925E+06</totfact>
</mgrwt>
</event>
<event>
 3      1 +1.7592000e+01 1.25000000e+02 7.54677100e-03 1.23506900e-01
       21 -1    0    0  502  501 +0.0000000000e+00 +0.0000000000e+00 +3.9444577196e+01 3.9444577196e+01 0.0000000000e+00 0.0000e+00 -1.0000e+00
       21 -1    0    0  501  502 -0.0000000000e+00 -0.0000000000e+00 -9.9031356848e+01 9.9031356848e+01 0.0000000000e+00 0.0000e+00 -1.0000e+00
       25  1    1    2    0    0 +0.0000000000e+00 +0.0000000000e+00 -5.9586779651e+01 1.3847593404e+02 1.2500000000e+02 0.0000e+00 0.0000e+00
<mgrwt>
<rscale>  0 0.12500000E+03</rscale>
<asrwt>0</asrwt>
<pdfrwt beam="1">  1       21 0.60683965E-02 0.12500000E+03</pdfrwt>
<pdfrwt beam="2">  1       21 0.15235593E-01 0.12500000E+03</pdfrwt>
<totfact> 0.72238901E+06</totfact>
</mgrwt>
</event>
<event>
 3      1 +1.7592000e+01 1.25000000e+02 7.54677100e-03 1.23506900e-01
       21 -1    0    0  502  501 +0.0000000000e+00 +0.0000000000e+00 +3.0119730394e+02 3.0119730394e+02 0.0000000000e+00 0.0000e+00 1.0000e+00
       21 -1    0    0  501  502 -0.0000000000e+00 -0.0000000000e+00 -1.2969073590e+01 1.2969073590e+01 0.0000000000e+00 0.0000e+00 1.0000e+00
       25  1    1    2    0    0 +0.0000000000e+00 +0.0000000000e+00 +2.8822823035e+02 3.1416637753e+02 1.2500000000e+02 0.0000e+00 0.0000e+00
<mgrwt>
<rscale>  0 0.12500000E+03</rscale>
<asrwt>0</asrwt>
<pdfrwt beam="1">  1       21 0.46338042E-01 0.12500000E+03</pdfrwt>
<pdfrwt beam="2">  1       21 0.19952423E-02 0.12500000E+03</pdfrwt>
<totfact> 0.54298892E+06</totfact>
</mgrwt>
</event>
<event>
 3      1 +1.7592000e+01 1.25000000e+02 7.54677100e-03 1.23506900e-01
       21 -1    0    0  502  501 +0.0000000000e+00 +0.0000000000e+00 +1.6782317692e+03 1.6782317692e+03 0.0000000000e+00 0.0000e+00 -1.0000e+00
       21 -1    0    0  501  502 -0.0000000000e+00 -0.0000000000e+00 -2.3275986497e+00 2.3275986497e+00 0.0000000000e+00 0.0000e+00 -1.0000e+00
       25  1    1    2    0    0 +0.0000000000e+00 +0.0000000000e+00 +1.6759041706e+03 1.6805593679e+03 1.2500000000e+02 0.0000e+00 0.0000e+00
<mgrwt>
<rscale>  0 0.12500000E+03</rscale>
<asrwt>0</asrwt>
<pdfrwt beam="1">  1       21 0.25818854E+00 0.12500000E+03</pdfrwt>
<pdfrwt beam="2">  1       21 0.35809344E-03 0.12500000E+03</pdfrwt>
<totfact> 0.11514690E+06</totfact>
</mgrwt>
</event>
<event>
 3      1 +1.7592000e+01 1.25000000e+02 7.54677100e-03 1.23506900e-01
       21 -1    0    0  502  501 +0.0000000000e+00 +0.0000000000e+00 +1.5758102151e+02 1.5758102151e+02 0.0000000000e+00 0.0000e+00 1.0000e+00
       21 -1    0    0  501  502 -0.0000000000e+00 -0.0000000000e+00 -2.4788835372e+01 2.4788835372e+01 0.0000000000e+00 0.0000e+00 1.0000e+00
       25  1    1    2    0    0 +0.0000000000e+00 +0.0000000000e+00 +1.3279218614e+02 1.8236985689e+02 1.2500000000e+02 0.0000e+00 0.0000e+00
<mgrwt>
<rscale>  0 0.12500000E+03</rscale>
<asrwt>0</asrwt>
<pdfrwt beam="1">  1       21 0.24243233E-01 0.12500000E+03</pdfrwt>
<pdfrwt beam="2">  1       21 0.38136671E-02 0.12500000E+03</pdfrwt>
<totfact> 0.66880709E+06</totfact>
</mgrwt>
</event>
<event>
 3      1 +1.7592000e+01 1.25000000e+02 7.54677100e-03 1.23506900e-01
       21 -1    0    0  502  501 +0.0000000000e+00 +0.0000000000e+00 +1.0998132903e+02 1.0998132903e+02 0.0000000000e+00 0.0000e+00 -1.0000e+00
       21 -1    0    0  501  502 -0.0000000000e+00 -0.0000000000e+00 -3.5517392220e+01 3.5517392220e+01 0.0000000000e+00 0.0000e+00 -1.0000e+00
       25  1    1    2    0    0 +0.0000000000e+00 +0.0000000000e+00 +7.4463936810e+01 1.4549872125e+02 1.2500000000e+02 0.0000e+00 0.0000e+00
<mgrwt>
<rscale>  0 0.12500000E+03</rscale>
<asrwt>0</asrwt>
<pdfrwt beam="1">  1       21 0.16920204E-01 0.12500000E+03</pdfrwt>
<pdfrwt beam="2">  1       21 0.54642143E-02 0.12500000E+03</pdfrwt>
<totfact> 0.71329336E+06</totfact>
</mgrwt>
</event>
<event>
 3      1 +1.7592000e+01 1.25000000e+02 7.54677100e-03 1.23506900e-01
       21 -1    0    0  502  501 +0.0000000000e+00 +0.0000000000e+00 +1.0345163148e+02 1.0345163148e+02 0.0000000000e+00 0.0000e+00 -1.0000e+00
       21 -1    0    0  501  502 -0.0000000000e+00 -0.0000000000e+00 -3.7759191849e+01 3.7759191849e+01 0.0000000000e+00 0.0000e+00 -1.0000e+00
       25  1    1    2    0    0 +0.0000000000e+00 +0.0000000000e+00 +6.5692439627e+01 1.4121082333e+02 1.2500000000e+02 0.0000e+00 0.0000e+00
<mgrwt>
<rscale>  0 0.12500000E+03</rscale>
<asrwt>0</asrwt>
<pdfrwt beam="1">  1       21 0.15915635E-01 0.12500000E+03</pdfrwt>
<pdfrwt beam="2">  1       21 0.58091065E-02 0.12500000E+03</pdfrwt>
<totfact> 0.71881630E+06</totfact>
</mgrwt>
</event>
<event>
 3      1 +1.7592000e+01 1.25000000e+02 7.54677100e-03 1.23506900e-01
       21 -1    0    0  502  501 +0.0000000000e+00 +0.0000000000e+00 +3.0324105220e+02 3.0324105220e+02 0.0000000000e+00 0.0000e+00 -1.0000e+00
       21 -1    0    0  501  502 -0.0000000000e+00 -0.0000000000e+00 -1.2881666159e+01 1.2881666159e+01 0.0000000000e+00 0.0000e+00 -1.0000e+00
       25  1    1    2    0    0 +0.0000000000e+00 +0.0000000000e+00 +2.9035938604e+02 3.1612271836e+02 1.2500000000e+02 0.0000e+00 0.0000e+00
<mgrwt>
<rscale>  0 0.12500000E+03</rscale>
<asrwt>0</asrwt>
<pdfrwt beam="1">  1       21 0.46652464E-01 0.12500000E+03</pdfrwt>
<pdfrwt beam="2">  1       21 0.19817950E-02 0.12500000E+03</pdfrwt>
<totfact> 0.54142037E+06</totfact>
</mgrwt>
</event>
<event>
 3      1 +1.7592000e+01 1.25000000e+02 7.54677100e-03 1.23506900e-01
       21 -1    0    0  502  501 +0.0000000000e+00 +0.0000000000e+00 +3.1075535721e+02 3.1075535721e+02 0.0000000000e+00 0.0000e+00 -1.0000e+00
       21 -1    0    0  501  502 -0.0000000000e+00 -0.0000000000e+00 -1.2570177503e+01 1.2570177503e+01 0.0000000000e+00 0.0000e+00 -1.0000e+00
       25  1    1    2    0    0 +0.0000000000e+00 +0.0000000000e+00 +2.9818517971e+02 3.2332553471e+02 1.2500000000e+02 0.0000e+00 0.0000e+00
<mgrwt>
<rscale>  0 0.12500000E+03</rscale>
<asrwt>0</asrwt>
<pdfrwt beam="1">  1       21 0.47808511E-01 0.12500000E+03</pdfrwt>
<pdfrwt beam="2">  1       21 0.19338737E-02 0.12500000E+03</pdfrwt>
<totfact> 0.53570861E+06</totfact>
</mgrwt>
</event>
<event>
 3      1 +1.7592000e+01 1.25000000e+02 7.54677100e-03 1.23506900e-01
       21 -1    0    0  502  501 +0.0000000000e+00 +0.0000000000e+00 +3.1530766369e+02 3.1530766369e+02 0.0000000000e+00 0.0000e+00 1.0000e+00
       21 -1    0    0  501  502 -0.0000000000e+00 -0.0000000000e+00 -1.2388693488e+01 1.2388693488e+01 0.0000000000e+00 0.0000e+00 1.0000e+00
       25  1    1    2    0    0 +0.0000000000e+00 +0.0000000000e+00 +3.0291897021e+02 3.2769635718e+02 1.2500000000e+02 0.0000e+00 0.0000e+00
<mgrwt>
<rscale>  0 0.12500000E+03</rscale>
<asrwt>0</asrwt>
<pdfrwt beam="1">  1       21 0.48508865E-01 0.12500000E+03</pdfrwt>
<pdfrwt beam="2">  1       21 0.19059531E-02 0.12500000E+03</pdfrwt>
<totfact> 0.53229029E+06</totfact>
</mgrwt>
</event>
<event>
 3      1 +1.7592000e+01 1.25000000e+02 7.54677100e-03 1.23506900e-01
       21 -1    0    0  502  501 +0.0000000000e+00 +0.0000000000e+00 +1.8847148758e+02 1.8847148758e+02 0.0000000000e+00 0.0000e+00 -1.0000e+00
       21 -1    0    0  501  502 -0.0000000000e+00 -0.0000000000e+00 -2.0725946668e+01 2.0725946668e+01 0.0000000000e+00 0.0000e+00 -1.0000e+00
       25  1    1    2    0    0 +0.0000000000e+00 +0.0000000000e+00 +1.6774554091e+02 2.0919743425e+02 1.2500000000e+02 0.0000e+00 0.0000e+00
<mgrwt>
<rscale>  0 0.12500000E+03</rscale>
<asrwt>0</asrwt>
<pdfrwt beam="1">  1       21 0.28995612E-01 0.12500000E+03</pdfrwt>
<pdfrwt beam="2">  1       21 0.31886073E-02 0.12500000E+03</pdfrwt>
<totfact> 0.63944074E+06</totfact>
</mgrwt>
</event>
<event>
 3      1 +1.7592000e+01 1.25000000e+02 7.54677100e-03 1.23506900e-01
       21 -1    0    0  502  501 +0.0000000000e+00 +0.0000000000e+00 +1.3389318594e+01 1.3389318594e+01 0.0000000000e+00 0.0000e+00 -1.0000e+00
       21 -1    0    0  501  502 -0.0000000000e+00 -0.0000000000e+00 -2.9174374875e+02 2.9174374875e+02 0.0000000000e+00 0.0000e+00 -1.0000e+00
       25  1    1    2    0    0 +0.0000000000e+00 +0.0000000000e+00 -2.7835443016e+02 3.0513306735e+02 1.2500000000e+02 0.0000e+00 0.0000e+00
<mgrwt>
<rscale>  0 0.12500000E+03</rscale>
<asrwt>0</asrwt>
<pdfrwt beam="1">  1       21 0.20598952E-02 0.12500000E+03</pdfrwt>
<pdfrwt beam="2">  1       21 0.44883653E-01 0.12500000E+03</pdfrwt>
<totfact> 0.55032276E+06</totfact>
</mgrwt>
</event>
<event>
 3      1 +1.7592000e+01 1.25000000e+02 7.54677100e-03 1.23506900e-01
       21 -1    0    0  502  501 +0.0000000000e+00 +0.0000000000e+00 +9.2373630898e+00 9.2373630898e+00 0.0000000000e+00 0.0000e+00 -1.0000e+00
       21 -1    0    0  501  502 -0.0000000000e+00 -0.0000000000e+00 -4.2287500903e+02 4.2287500903e+02 0.0000000000e+00 0.0000e+00 -1.0000e+00
       25  1    1    2    0    0 +0.0000000000e+00 +0.0000000000e+00 -4.1363764594e+02 4.3211237212e+02 1.2500000000e+02 0.0000e+00 0.0000e+00
<mgrwt>
<rscale>  0 0.12500000E+03</rscale>
<asrwt>0</asrwt>
<pdfrwt beam="1">  1       21 0.14211332E-02 0.12500000E+03</pdfrwt>
<pdfrwt beam="2">  1       21 0.65057673E-01 0.12500000E+03</pdfrwt>
<totfact> 0.45981848E+06</totfact>
</mgrwt>
</event>
<event>
 3      1 +1.7592000e+01 1.25000000e+02 7.54677100e-03 1.23506900e-01
       21 -1    0    0  502  501 +0.0000000000e+00 +0.0000000000e+00 +6.4455693661e+02 6.4455693661e+02 0.0000000000e+00 0.0000e+00 -1.0000e+00
       21 -1    0    0  501  502 -0.0000000000e+00 -0.0000000000e+00 -6.0603645359e+00 6.0603645359e+00 0.0000000000e+00 0.0000e+00 -1.0000e+00
       25  1    1    2    0    0 +0.0000000000e+00 +0.0000000000e+00 +6.3849657207e+02 6.5061730115e+02 1.2500000000e+02 0.0000e+00 0.0000e+00
<mgrwt>
<rscale>  0 0.12500000E+03</rscale>
<asrwt>0</asrwt>
<pdfrwt beam="1">  1       21 0.99162551E-01 0.12500000E+03</pdfrwt>
<pdfrwt beam="2">  1       21 0.93236429E-03 0.12500000E+03</pdfrwt>
<totfact> 0.34898887E+06</totfact>
</mgrwt>
</event>
<event>
 3      1 +1.7592000e+01 1.25000000e+02 7.54677100e-03 1.23506900e-01
       21 -1    0    0  502  501 +0.0000000000e+00 +0.0000000000e+00 +3.4262708099e+01 3.4262708099e+01 0.0000000000e+00 0.0000e+00 1.0000e+00
       21 -1    0    0  501  502 -0.0000000000e+00 -0.0000000000e+00 -1.1400879314e+02 1.1400879314e+02 0.0000000000e+00 0.0000e+00 1.0000e+00
       25  1    1    2    0    0 +0.0000000000e+00 +0.0000000000e+00 -7.9746085037e+01 1.4827150124e+02 1.2500000000e+02 0.0000e+00 0.0000e+00
<mgrwt>
<rscale>  0 0.12500000E+03</rscale>
<asrwt>0</asrwt>
<pdfrwt beam="1">  1       21 0.52711858E-02 0.12500000E+03</pdfrwt>
<pdfrwt beam="2">  1       21 0.17539815E-01 0.12500000E+03</pdfrwt>
<totfact> 0.70977012E+06</totfact>
</mgrwt>
</event>
<event>
 3      1 +1.7592000e+01 1.25000000e+02 7.54677100e-03 1.23506900e-01
       21 -1    0    0  502  501 +0.0000000000e+00 +0.0000000000e+00 +9.7304936384e+02 9.7304936384e+02 0.0000000000e+00 0.0000e+00 1.0000e+00
       21 -1    0    0  501  502 -0.0000000000e+00 -0.0000000000e+00 -4.0144417592e+00 4.0144417592e+00 0.0000000000e+00 0.0000e+00 1.0000e+00
       25  1    1    2    0    0 +0.0000000000e+00 +0.0000000000e+00 +9.6903492208e+02 9.7706380560e+02 1.2500000000e+02 0.0000e+00 0.0000e+00
<mgrwt>
<rscale>  0 0.12500000E+03</rscale>
<asrwt>0</asrwt>
<pdfrwt beam="1">  1       21 0.14969971E+00 0.12500000E+03</pdfrwt>
<pdfrwt beam="2">  1       21 0.61760720E-03 0.12500000E+03</pdfrwt>
<totfact> 0.24200570E+06</totfact>
</mgrwt>
</event>
<event>
 3      1 +1.7592000e+01 1.25000000e+02 7.54677100e-03 1.23506900e-01
       21 -1    0    0  502  501 +0.0000000000e+00 +0.0000000000e+00 +4.0282300452e+01 4.0282300452e+01 0.0000000000e+00 0.0000e+00 -1.0000e+00
       21 -1    0    0  501  502 -0.0000000000e+00 -0.0000000000e+00 -9.6971869932e+01 9.6971869932e+01 0.0000000000e+00 0.0000e+00 -1.0000e+00
       25  1    1    2    0    0 +0.0000000000e+00 +0.0000000000e+00 -5.6689569480e+01 1.3725417038e+02 1.2500000000e+02 0.0000e+00 0.0000e+00
<mgrwt>
<rscale>  0 0.12500000E+03</rscale>
<asrwt>0</asrwt>
<pdfrwt beam="1">  1       21 0.61972771E-02 0.12500000E+03</pdfrwt>
<pdfrwt beam="2">  1       21 0.14918749E-01 0.12500000E+03</pdfrwt>
<totfact> 0.72399358E+06</totfact>
</mgrwt>
</event>
<event>
 3      1 +1.7592000e+01 1.25000000e+02 7.54677100e-03 1.23506900e-01
       21 -1    0    0  502  501 +0.0000000000e+00 +0.0000000000e+00 +3.8925158057e+01 3.8925158057e+01 0.0000000000e+00 0.0000e+00 -1.0000e+00
       21 -1    0    0  501  502 -0.0000000000e+00 -0.0000000000e+00 -1.0035283593e+02 1.0035283593e+02 0.0000000000e+00 0.0000e+00 -1.0000e+00
       25  1    1    2    0    0 +0.0000000000e+00 +0.0000000000e+00 -6.1427677871e+01 1.3927799399e+02 1.2500000000e+02 0.0000e+00 0.0000e+00
<mgrwt>
<rscale>  0 0.12500000E+03</rscale>
<asrwt>0</asrwt>
<pdfrwt beam="1">  1       21 0.59884858E-02 0.12500000E+03</pdfrwt>
<pdfrwt beam="2">  1       21 0.15438898E-01 0.12500000E+03</pdfrwt>
<totfact> 0.72133705E+06</totfact>
</mgrwt>
</event>
<event>
 3      1 +1.7592000e+01 1.25000000e+02 7.54677100e-03 1.23506900e-01
       21 -1    0    0  502  501 +0.0000000000e+00 +0.0000000000e+00 +1.9436744704e+00 1.9436744704e+00 0.0000000000e+00 0.0000e+00 -1.0000e+00
       21 -1    0    0  501  502 -0.0000000000e+00 -0.0000000000e+00 -2.0097243954e+03 2.0097243954e+03 0.0000000000e+00 0.0000e+00 -1.0000e+00
       25  1    1    2    0    0 +0.0000000000e+00 +0.0000000000e+00 -2.0077807210e+03 2.0116680699e+03 1.2500000000e+02 0.0000e+00 0.0000e+00
<mgrwt>
<rscale>  0 0.12500000E+03</rscale>
<asrwt>0</asrwt>
<pdfrwt beam="1">  1       21 0.29902659E-03 0.12500000E+03</pdfrwt>
<pdfrwt beam="2">  1       21 0.30918863E+00 0.12500000E+03</pdfrwt>
<totfact> 0.78346905E+05</totfact>
</mgrwt>
</event>
<event>
 3      1 +1.7592000e+01 1.25000000e+02 7.54677100e-03 1.23506900e-01
       21 -1    0    0  502  501 +0.0000000000e+00 +0.0000000000e+00 +3.0837741637e+00 3.0837741637e+00 0.0000000000e+00 0.0000e+00 1.0000e+00
       21 -1    0    0  501  502 -0.0000000000e+00 -0.0000000000e+00 -1.2667107877e+03 1.2667107877e+03 0.0000000000e+00 0.0000e+00 1.0000e+00
       25  1    1    2    0    0 +0.0000000000e+00 +0.0000000000e+00 -1.2636270136e+03 1.2697945619e+03 1.2500000000e+02 0.0000e+00 0.0000e+00
<mgrwt>
<rscale>  0 0.12500000E+03</rscale>
<asrwt>0</asrwt>
<pdfrwt beam="1">  1       21 0.47442541E-03 0.12500000E+03</pdfrwt>
<pdfrwt beam="2">  1       21 0.19487915E+00 0.12500000E+03</pdfrwt>
<totfact> 0.17803489E+06</totfact>
</mgrwt>
</event>
<event>
 3      1 +1.7592000e+01 1.25000000e+02 7.54677100e-03 1.23506900e-01
       21 -1    0    0  502  501 +0.0000000000e+00 +0.0000000000e+00 +1.7393495094e+02 1.7393495094e+02 0.0000000000e+00 0.0000e+00 -1.0000e+00
       21 -1    0    0  501  502 -0.0000000000e+00 -0.0000000000e+00 -2.2458108499e+01 2.2458108499e+01 0.0000000000e+00 0.0000e+00 -1.0000e+00
       25  1    1    2    0    0 +0.0000000000e+00 +0.0000000000e+00 +1.5147684244e+02 1.9639305944e+02 1.2500000000e+02 0.0000e+00 0.0000e+00
<mgrwt>
<rscale>  0 0.12500000E+03</rscale>
<asrwt>0</asrwt>
<pdfrwt beam="1">  1       21 0.26759222E-01 0.12500000E+03</pdfrwt>
<pdfrwt beam="2">  1       21 0.34550937E-02 0.12500000E+03</pdfrwt>
<totfact> 0.65318879E+06</totfact>
</mgrwt>
</event>
<event>
 3      1 +1.7592000e+01 1.25000000e+02 7.54677100e-03 1.23506900e-01
       21 -1    0    0  502  501 +0.0000000000e+00 +0.0000000000e+00 +8.8934946075e+01 8.8934946075e+01 0.0000000000e+00 0.0000e+00 -1.0000e+00
       21 -1    0    0  501  502 -0.0000000000e+00 -0.0000000000e+00 -4.3922554321e+01 4.3922554321e+01 0.0000000000e+00 0.0000e+00 -1.0000e+00
       25  1    1    2    0    0 +0.0000000000e+00 +0.0000000000e+00 +4.5012391753e+01 1.3285750040e+02 1.2500000000e+02 0.0000e+00 0.0000e+00
<mgrwt>
<rscale>  0 0.12500000E+03</rscale>
<asrwt>0</asrwt>
<pdfrwt beam="1">  1       21 0.13682299E-01 0.12500000E+03</pdfrwt>
<pdfrwt beam="2">  1       21 0.67573161E-02 0.12500000E+03</pdfrwt>
<totfact> 0.72981433E+06</totfact>
</mgrwt>
</event>
<event>
 3      1 +1.7592000e+01 1.25000000e+02 7.54677100e-03 1.23506900e-01
       21 -1    0    0  502  501 +0.0000000000e+00 +0.0000000000e+00 +1.3136475817e+01 1.3136475817e+01 0.0000000000e+00 0.0000e+00 -1.0000e+00
       21 -1    0    0  501  502 -0.0000000000e+00 -0.0000000000e+00 -2.9735905234e+02 2.9735905234e+02 0.0000000000e+00 0.0000e+00 -1.0000e+00
       25  1    1    2    0    0 +0.0000000000e+00 +0.0000000000e+00 -2.8422257652e+02 3.1049552816e+02 1.2500000000e+02 0.0000e+00 0.0000e+00
<mgrwt>
<rscale>  0 0.12500000E+03</rscale>
<asrwt>0</asrwt>
<pdfrwt beam="1">  1       21 0.20209965E-02 0.12500000E+03</pdfrwt>
<pdfrwt beam="2">  1       21 0.45747542E-01 0.12500000E+03</pdfrwt>
<totfact> 0.54595080E+06</totfact>
</mgrwt>
</event>
<event>
 3      1 +1.7592000e+01 1.25000000e+02 7.54677100e-03 1.23506900e-01
       21 -1    0    0  502  501 +0.0000000000e+00 +0.0000000000e+00 +5.4001172557e+00 5.4001172557e+00 0.0000000000e+00 0.0000e+00 -1.0000e+00
       21 -1    0    0  501  502 -0.0000000000e+00 -0.0000000000e+00 -7.2336392250e+02 7.2336392250e+02 0.0000000000e+00 0.0000e+00 -1.0000e+00
       25  1    1    2    0    0 +0.0000000000e+00 +0.0000000000e+00 -7.1796380524e+02 7.2876403975e+02 1.2500000000e+02 0.0000e+00 0.0000e+00
<mgrwt>
<rscale>  0 0.12500000E+03</rscale>
<asrwt>0</asrwt>
<pdfrwt beam="1">  1       21 0.83078783E-03 0.12500000E+03</pdfrwt>
<pdfrwt beam="2">  1       21 0.11128668E+00 0.12500000E+03</pdfrwt>
<totfact> 0.31830259E+06</totfact>
</mgrwt>
</event>
<event>
 3      1 +1.7592000e+01 1.25000000e+02 7.54677100e-03 1.23506900e-01
       21 -1    0    0  502  501 +0.0000000000e+00 +0.0000000000e+00 +2.9717873287e+02 2.9717873287e+02 0.0000000000e+00 0.0000e+00 -1.0000e+00
       21 -1    0    0  501  502 -0.0000000000e+00 -0.0000000000e+00 -1.3144446651e+01 1.3144446651e+01 0.0000000000e+00 0.0000e+00 -1.0000e+00
       25  1    1    2    0    0 +0.0000000000e+00 +0.0000000000e+00 +2.8403428621e+02 3.1032317952e+02 1.2500000000e+02 0.0000e+00 0.0000e+00
<mgrwt>
<rscale>  0 0.12500000E+03</rscale>
<asrwt>0</asrwt>
<pdfrwt beam="1">  1       21 0.45719800E-01 0.12500000E+03</pdfrwt>
<pdfrwt beam="2">  1       21 0.20222228E-02 0.12500000E+03</pdfrwt>
<totfact> 0.54609043E+06</totfact>
</mgrwt>
</event>
<event>
 3      1 +1.7592000e+01 1.25000000e+02 7.54677100e-03 1.23506900e-01
       21 -1    0    0  502  501 +0.0000000000e+00 +0.0000000000e+00 +2.4786055680e+01 2.4786055680e+01 0.0000000000e+00 0.0000e+00 1.0000e+00
       21 -1    0    0  501  502 -0.0000000000e+00 -0.0000000000e+00 -1.5759869381e+02 1.5759869381e+02 0.0000000000e+00 0.0000e+00 1.0000e+00
       25  1    1    2    0    0 +0.0000000000e+00 +0.0000000000e+00 -1.3281263813e+02 1.8238474949e+02 1.2500000000e+02 0.0000e+00 0.0000e+00
<mgrwt>
<rscale>  0 0.12500000E+03</rscale>
<asrwt>0</asrwt>
<pdfrwt beam="1">  1       21 0.38132394E-02 0.12500000E+03</pdfrwt>
<pdfrwt beam="2">  1       21 0.24245953E-01 0.12500000E+03</pdfrwt>
<totfact> 0.66879013E+06</totfact>
</mgrwt>
</event>
<event>
 3      1 +1.7592000e+01 1.25000000e+02 7.54677100e-03 1.23506900e-01
       21 -1    0    0  502  501 +0.0000000000e+00 +0.0000000000e+00 +3.8127313196e+01 3.8127313196e+01 0.0000000000e+00 0.0000e+00 -1.0000e+00
       21 -1    0    0  501  502 -0.0000000000e+00 -0.0000000000e+00 -1.0245280017e+02 1.0245280017e+02 0.0000000000e+00 0.0000e+00 -1.0000e+00
       25  1    1    2    0    0 +0.0000000000e+00 +0.0000000000e+00 -6.4325486978e+01 1.4058011337e+02 1.2500000000e+02 0.0000e+00 0.0000e+00
<mgrwt>
<rscale>  0 0.12500000E+03</rscale>
<asrwt>0</asrwt>
<pdfrwt beam="1">  1       21 0.58657405E-02 0.12500000E+03</pdfrwt>
<pdfrwt beam="2">  1       21 0.15761969E-01 0.12500000E+03</pdfrwt>
<totfact> 0.71963666E+06</totfact>
</mgrwt>
</event>
<event>
 3      1 +1.7592000e+01 1.25000000e+02 7.54677100e-03 1.23506900e-01
       21 -1    0    0  502  501 +0.0000000000e+00 +0.0000000000e+00 +6.2496639960e+00 6.2496639960e+00 0.0000000000e+00 0.0000e+00 -1.0000e+00
       21 -1    0    0  501  502 -0.0000000000e+00 -0.0000000000e+00 -6.2503360220e+02 6.2503360220e+02 0.0000000000e+00 0.0000e+00 -1.0000e+00
       25  1    1    2    0    0 +0.0000000000e+00 +0.0000000000e+00 -6.1878393821e+02 6.3128326620e+02 1.2500000000e+02 0.0000e+00 0.0000e+00
<mgrwt>
<rscale>  0 0.12500000E+03</rscale>
<asrwt>0</asrwt>
<pdfrwt beam="1">  1       21 0.96148673E-03 0.12500000E+03</pdfrwt>
<pdfrwt beam="2">  1       21 0.96159020E-01 0.12500000E+03</pdfrwt>
<totfact> 0.35715038E+06</totfact>
</mgrwt>
</event>
<event>
 3      1 +1.7592000e+01 1.25000000e+02 7.54677100e-03 1.23506900e-01
       21 -1    0    0  502  501 +0.0000000000e+00 +0.0000000000e+00 +6.3599301664e+02 6.3599301664e+02 0.0000000000e+00 0.0000e+00 1.0000e+00
       21 -1    0    0  501  502 -0.0000000000e+00 -0.0000000000e+00 -6.1419699553e+00 6.1419699553e+00 0.0000000000e+00 0.0000e+00 1.0000e+00
       25  1    1    2    0    0 +0.0000000000e+00 +0.0000000000e+00 +6.2985104669e+02 6.4213498660e+02 1.2500000000e+02 0.0000e+00 0.0000e+00
<mgrwt>
<rscale>  0 0.12500000E+03</rscale>
<asrwt>0</asrwt>
<pdfrwt beam="1">  1       21 0.97845028E-01 0.12500000E+03</pdfrwt>
<pdfrwt beam="2">  1       21 0.94491896E-03 0.12500000E+03</pdfrwt>
<totfact> 0.35253777E+06</totfact>
</mgrwt>
</event>
<event>
 3      1 +1.7592000e+01 1.25000000e+02 7.54677100e-03 1.23506900e-01
       21 -1    0    0  502  501 +0.0000000000e+00 +0.0000000000e+00 +2.0037677040e+01 2.0037677040e+01 0.0000000000e+00 0.0000e+00 -1.0000e+00
       21 -1    0    0  501  502 -0.0000000000e+00 -0.0000000000e+00 -1.9494525200e+02 1.9494525200e+02 0.0000000000e+00 0.0000e+00 -1.0000e+00
       25  1    1    2    0    0 +0.0000000000e+00 +0.0000000000e+00 -1.7490757496e+02 2.1498292904e+02 1.2500000000e+02 0.0000e+00 0.0000e+00
<mgrwt>
<rscale>  0 0.12500000E+03</rscale>
<asrwt>0</asrwt>
<pdfrwt beam="1">  1       21 0.30827195E-02 0.12500000E+03</pdfrwt>
<pdfrwt beam="2">  1       21 0.29991578E-01 0.12500000E+03</pdfrwt>
<totfact> 0.63339058E+06</totfact>
</mgrwt>
</event>
<event>
 3      1 +1.7592000e+01 1.25000000e+02 7.54677100e-03 1.23506900e-01
       21 -1    0    0  502  501 +0.0000000000e+00 +0.0000000000e+00 +3.1623811789e+01 3.1623811789e+01 0.0000000000e+00 0.0000e+00 -1.0000e+00
       21 -1    0    0  501  502 -0.0000000000e+00 -0.0000000000e+00 -1.2352242753e+02 1.2352242753e+02 0.0000000000e+00 0.0000e+00 -1.0000e+00
       25  1    1    2    0    0 +0.0000000000e+00 +0.0000000000e+00 -9.1898615742e+01 1.5514623932e+02 1.2500000000e+02 0.0000e+00 0.0000e+00
<mgrwt>
<rscale>  0 0.12500000E+03</rscale>
<asrwt>0</asrwt>
<pdfrwt beam="1">  1       21 0.48652017E-02 0.12500000E+03</pdfrwt>
<pdfrwt beam="2">  1       21 0.19003451E-01 0.12500000E+03</pdfrwt>
<totfact> 0.70117487E+06</totfact>
</mgrwt>
</event>
<event>
 3      1 +1.7592000e+01 1.25000000e+02 7.54677100e-03 1.23506900e-01
       21 -1    0    0  502  501 +0.0000000000e+00 +0.0000000000e+00 +1.2677935624e+02 1.2677935624e+02 0.0000000000e+00 0.0000e+00 1.0000e+00
       21 -1    0    0  501  502 -0.0000000000e+00 -0.0000000000e+00 -3.0811404284e+01 3.0811404284e+01 0.0000000000e+00 0.0000e+00 1.0000e+00
       25  1    1    2    0    0 +0.0000000000e+00 +0.0000000000e+00 +9.5967951959e+01 1.5759076053e+02 1.2500000000e+02 0.0000e+00 0.0000e+00
<mgrwt>
<rscale>  0 0.12500000E+03</rscale>
<asrwt>0</asrwt>
<pdfrwt beam="1">  1       21 0.19504516E-01 0.12500000E+03</pdfrwt>
<pdfrwt beam="2">  1       21 0.47402161E-02 0.12500000E+03</pdfrwt>
<totfact> 0.69815084E+06</totfact>
</mgrwt>
</event>
<event>
 3      1 +1.7592000e+01 1.25000000e+02 7.54677100e-03 1.23506900e-01
       21 -1    0    0  502  501 +0.0000000000e+00 +0.0000000000e+00 +1.0552511060e+03 1.0552511060e+03 0.0000000000e+00 0.0000e+00 1.0000e+00
       21 -1    0    0  501  502 -0.0000000000e+00 -0.0000000000e+00 -3.7017255683e+00 3.7017255683e+00 0.0000000000e+00 0.0000e+00 1.0000e+00
       25  1    1    2    0    0 +0.0000000000e+00 +0.0000000000e+00 +1.0515493804e+03 1.0589528316e+03 1.2500000000e+02 0.0000e+00 0.0000e+00
<mgrwt>
<rscale>  0 0.12500000E+03</rscale>
<asrwt>0</asrwt>
<pdfrwt beam="1">  1       21 0.16234608E+00 0.12500000E+03</pdfrwt>
<pdfrwt beam="2">  1       21 0.56949708E-03 0.12500000E+03</pdfrwt>
<totfact> 0.22188183E+06</totfact>
</mgrwt>
</event>
<event>
 3      1 +1.7592000e+01 1.25000000e+02 7.54677100e-03 1.23506900e-01
       21 -1    0    0  502  501 +0.0000000000e+00 +0.0000000000e+00 +5.4414293649e+01 5.4414293649e+01 0.0000000000e+00 0.0000e+00 1.0000e+00
       21 -1    0    0  501  502 -0.0000000000e+00 -0.0000000000e+00 -7.1787204024e+01 7.1787204024e+01 0.0000000000e+00 0.0000e+00 1.0000e+00
       25  1    1    2    0    0 +0.0000000000e+00 +0.0000000000e+00 -1.7372910375e+01 1.2620149767e+02 1.2500000000e+02 0.0000e+00 0.0000e+00
<mgrwt>
<rscale>  0 0.12500000E+03</rscale>
<asrwt>0</asrwt>
<pdfrwt beam="1">  1       21 0.83714298E-02 0.12500000E+03</pdfrwt>
<pdfrwt beam="2">  1       21 0.11044185E-01 0.12500000E+03</pdfrwt>
<totfact> 0.73878304E+06</totfact>
</mgrwt>
</event>
<event>
 3      1 +1.7592000e+01 1.25000000e+02 7.54677100e-03 1.23506900e-01
       21 -1    0    0  502  501 +0.0000000000e+00 +0.0000000000e+00 +4.6847221061e+00 4.6847221061e+00 0.0000000000e+00 0.0000e+00 -1.0000e+00
       21 -1    0    0  501  502 -0.0000000000e+00 -0.0000000000e+00 -8.3382747397e+02 8.3382747397e+02 0.0000000000e+00 0.0000e+00 -1.0000e+00
       25  1    1    2    0    0 +0.0000000000e+00 +0.0000000000e+00 -8.2914275186e+02 8.3851219608e+02 1.2500000000e+02 0.0000e+00 0.0000e+00
<mgrwt>
<rscale>  0 0.12500000E+03</rscale>
<asrwt>0</asrwt>
<pdfrwt beam="1">  1       21 0.72072640E-03 0.12500000E+03</pdfrwt>
<pdfrwt beam="2">  1       21 0.12828116E+00 0.12500000E+03</pdfrwt>
<totfact> 0.28125929E+06</totfact>
</mgrwt>
</event>
<event>
 3      1 +1.7592000e+01 1.25000000e+02 7.54677100e-03 1.23506900e-01
       21 -1    0    0  502  501 +0.0000000000e+00 +0.0000000000e+00 +4.0787971929e+02 4.0787971929e+02 0.0000000000e+00 0.0000e+00 -1.0000e+00
       21 -1    0    0  501  502 -0.0000000000e+00 -0.0000000000e+00 -9.5769655005e+00 9.5769655005e+00 0.0000000000e+00 0.0000e+00 -1.0000e+00
       25  1    1    2    0    0 +0.0000000000e+00 +0.0000000000e+00 +3.9830275379e+02 4.1745668479e+02 1.2500000000e+02 0.0000e+00 0.0000e+00
<mgrwt>
<rscale>  0 0.12500000E+03</rscale>
<asrwt>0</asrwt>
<pdfrwt beam="1">  1       21 0.62750713E-01 0.12500000E+03</pdfrwt>
<pdfrwt beam="2">  1       21 0.14733796E-02 0.12500000E+03</pdfrwt>
<totfact> 0.46904625E+06</totfact>
</mgrwt>
</event>
<event>
 3      1 +1.7592000e+01 1.25000000e+02 7.54677100e-03 1.23506900e-01
       21 -1    0    0  502  501 +0.0000000000e+00 +0.0000000000e+00 +5.0866290846e+01 5.0866290846e+01 0.0000000000e+00 0.0000e+00 1.0000e+00
       21 -1    0    0  501  502 -0.0000000000e+00 -0.0000000000e+00 -7.6794473020e+01 7.6794473020e+01 0.0000000000e+00 0.0000e+00 1.0000e+00
       25  1    1    2    0    0 +0.0000000000e+00 +0.0000000000e+00 -2.5928182175e+01 1.2766076387e+02 1.2500000000e+02 0.0000e+00 0.0000e+00
<mgrwt>
<rscale>  0 0.12500000E+03</rscale>
<asrwt>0</asrwt>
<pdfrwt beam="1">  1       21 0.78255832E-02 0.12500000E+03</pdfrwt>
<pdfrwt beam="2">  1       21 0.11814534E-01 0.12500000E+03</pdfrwt>
<totfact> 0.73679438E+06</totfact>
</mgrwt>
</event>
<event>
 3      1 +1.7592000e+01 1.25000000e+02 7.54677100e-03 1.23506900e-01
       21 -1    0    0  502  501 +0.0000000000e+00 +0.0000000000e+00 +5.3381446782e+01 5.3381446782e+01 0.0000000000e+00 0.0000e+00 -1.0000e+00
       21 -1    0    0  501  502 -0.0000000000e+00 -0.0000000000e+00 -7.3176173286e+01 7.3176173286e+01 0.0000000000e+00 0.0000e+00 -1.0000e+00
       25  1    1    2    0    0 +0.0000000000e+00 +0.0000000000e+00 -1.9794726504e+01 1.2655762007e+02 1.2500000000e+02 0.0000e+00 0.0000e+00
<mgrwt>
<rscale>  0 0.12500000E+03</rscale>
<asrwt>0</asrwt>
<pdfrwt beam="1">  1       21 0.82125303E-02 0.12500000E+03</pdfrwt>
<pdfrwt beam="2">  1       21 0.11257873E-01 0.12500000E+03</pdfrwt>
<totfact> 0.73829490E+06</totfact>
</mgrwt>
</event>
<event>
 3      1 +1.7592000e+01 1.25000000e+02 7.54677100e-03 1.23506900e-01
       21 -1    0    0  502  501 +0.0000000000e+00 +0.0000000000e+00 +5.0289424545e+02 5.0289424545e+02 0.0000000000e+00 0.0000e+00 -1.0000e+00
       21 -1    0    0  501  502 -0.0000000000e+00 -0.0000000000e+00 -7.7675376788e+00 7.7675376788e+00 0.0000000000e+00 0.0000e+00 -1.0000e+00
       25  1    1    2    0    0 +0.0000000000e+00 +0.0000000000e+00 +4.9512670777e+02 5.1066178313e+02 1.2500000000e+02 0.0000e+00 0.0000e+00
<mgrwt>
<rscale>  0 0.12500000E+03</rscale>
<asrwt>0</asrwt>
<pdfrwt beam="1">  1       21 0.77368320E-01 0.12500000E+03</pdfrwt>
<pdfrwt beam="2">  1       21 0.11950062E-02 0.12500000E+03</pdfrwt>
<totfact> 0.41471707E+06</totfact>
</mgrwt>
</event>
<event>
 3      1 +1.7592000e+01 1.25000000e+02 7.54677100e-03 1.23506900e-01
       21 -1    0    0  502  501 +0.0000000000e+00 +0.0000000000e+00 +2.9878619581e+01 2.9878619581e+01 0.0000000000e+00 0.0000e+00 1.0000e+00
       21 -1    0    0  501  502 -0.0000000000e+00 -0.0000000000e+00 -1.3073729827e+02 1.3073729827e+02 0.0000000000e+00 0.0000e+00 1.0000e+00
       25  1    1    2    0    0 +0.0000000000e+00 +0.0000000000e+00 -1.0085867869e+02 1.6061591785e+02 1.2500000000e+02 0.0000e+00 0.0000e+00
<mgrwt>
<rscale>  0 0.12500000E+03</rscale>
<asrwt>0</asrwt>
<pdfrwt beam="1">  1       21 0.45967107E-02 0.12500000E+03</pdfrwt>
<pdfrwt beam="2">  1       21 0.20113430E-01 0.12500000E+03</pdfrwt>
<totfact> 0.69444316E+06</totfact>
</mgrwt>
</event>
<event>
 3      1 +1.7592000e+01 1.25000000e+02 7.54677100e-03 1.23506900e-01
       21 -1    0    0  502  501 +0.0000000000e+00 +0.0000000000e+00 +5.1554425482e+01 5.1554425482e+01 0.0000000000e+00 0.0000e+00 -1.0000e+00
       21 -1    0    0  501  502 -0.0000000000e+00 -0.0000000000e+00 -7.5769441003e+01 7.5769441003e+01 0.0000000000e+00 0.0000e+00 -1.0000e+00
       25  1    1    2    0    0 +0.0000000000e+00 +0.0000000000e+00 -2.4215015521e+01 1.2732386648e+02 1.2500000000e+02 0.0000e+00 0.0000e+00
<mgrwt>
<rscale>  0 0.12500000E+03</rscale>
<asrwt>0</asrwt>
<pdfrwt beam="1">  1       21 0.79314500E-02 0.12500000E+03</pdfrwt>
<pdfrwt beam="2">  1       21 0.11656837E-01 0.12500000E+03</pdfrwt>
<totfact> 0.73725111E+06</totfact>
</mgrwt>
</event>
<event>
 3      1 +1.7592000e+01 1.25000000e+02 7.54677100e-03 1.23506900e-01
       21 -1    0    0  502  501 +0.0000000000e+00 +0.0000000000e+00 +7.5683310769e+01 7.5683310769e+01 0.0000000000e+00 0.0000e+00 1.0000e+00
       21 -1    0    0  501  502 -0.0000000000e+00 -0.0000000000e+00 -5.1613096207e+01 5.1613096207e+01 0.0000000000e+00 0.0000e+00 1.0000e+00
       25  1    1    2    0    0 +0.0000000000e+00 +0.0000000000e+00 +2.4070214562e+01 1.2729640698e+02 1.2500000000e+02 0.0000e+00 0.0000e+00
<mgrwt>
<rscale>  0 0.12500000E+03</rscale>
<asrwt>0</asrwt>
<pdfrwt beam="1">  1       21 0.11643586E-01 0.12500000E+03</pdfrwt>
<pdfrwt beam="2">  1       21 0.79404763E-02 0.12500000E+03</pdfrwt>
<totfact> 0.73728839E+06</totfact>
</mgrwt>
</event>
<event>
 3      1 +1.7592000e+01 1.25000000e+02 7.54677100e-03 1.23506900e-01
       21 -1    0    0  502  501 +0.0000000000e+00 +0.0000000000e+00 +1.4297387098e+02 1.4297387098e+02 0.0000000000e+00 0.0000e+00 1.0000e+00
       21 -1    0    0  501  502 -0.0000000000e+00 -0.0000000000e+00 -2.7321425748e+01 2.7321425748e+01 0.0000000000e+00 0.0000e+00 1.0000e+00
       25  1    1    2    0    0 +0.0000000000e+00 +0.0000000000e+00 +1.1565244523e+02 1.7029529673e+02 1.2500000000e+02 0.0000e+00 0.0000e+00
<mgrwt>
<rscale>  0 0.12500000E+03</rscale>
<asrwt>0</asrwt>
<pdfrwt beam="1">  1       21 0.21995980E-01 0.12500000E+03</pdfrwt>
<pdfrwt beam="2">  1       21 0.42032964E-02 0.12500000E+03</pdfrwt>
<totfact> 0.68282647E+06</totfact>
</mgrwt>
</event>
<event>
 3      1 +1.7592000e+01 1.25000000e+02 7.54677100e-03 1.23506900e-01
       21 -1    0    0  502  501 +0.0000000000e+00 +0.0000000000e+00 +3.6833298764e+02 3.6833298764e+02 0.0000000000e+00 0.0000e+00 -1.0000e+00
       21 -1    0    0  501  502 -0.0000000000e+00 -0.0000000000e+00 -1.0605213573e+01 1.0605213573e+01 0.0000000000e+00 0.0000e+00 -1.0000e+00
       25  1    1    2    0    0 +0.0000000000e+00 +0.0000000000e+00 +3.5772777407e+02 3.7893820121e+02 1.2500000000e+02 0.0000e+00 0.0000e+00
<mgrwt>
<rscale>  0 0.12500000E+03</rscale>
<asrwt>0</asrwt>
<pdfrwt beam="1">  1       21 0.56666604E-01 0.12500000E+03</pdfrwt>
<pdfrwt beam="2">  1       21 0.16315716E-02 0.12500000E+03</pdfrwt>
<totfact> 0.49469738E+06</totfact>
</mgrwt>
</event>
<event>
 3      1 +1.7592000e+01 1.25000000e+02 7.54677100e-03 1.23506900e-01
       21 -1    0    0  502  501 +0.0000000000e+00 +0.0000000000e+00 +9.4051034292e+00 9.4051034292e+00 0.0000000000e+00 0.0000e+00 -1.0000e+00
       21 -1    0    0  501  502 -0.0000000000e+00 -0.0000000000e+00 -4.1533301887e+02 4.1533301887e+02 0.0000000000e+00 0.0000e+00 -1.0000e+00
       25  1    1    2    0    0 +0.0000000000e+00 +0.0000000000e+00 -4.0592791544e+02 4.2473812229e+02 1.2500000000e+02 0.0000e+00 0.0000e+00
<mgrwt>
<rscale>  0 0.12500000E+03</rscale>
<asrwt>0</asrwt>
<pdfrwt beam="1">  1       21 0.14469389E-02 0.12500000E+03</pdfrwt>
<pdfrwt beam="2">  1       21 0.63897392E-01 0.12500000E+03</pdfrwt>
<totfact> 0.46442644E+06</totfact>
</mgrwt>
</event>
<event>
 3      1 +1.7592000e+01 1.25000000e+02 7.54677100e-03 1.23506900e-01
       21 -1    0    0  502  501 +0.0000000000e+00 +0.0000000000e+00 +3.5747896956e+02 3.5747896956e+02 0.0000000000e+00 0.0000e+00 1.0000e+00
       21 -1    0    0  501  502 -0.0000000000e+00 -0.0000000000e+00 -1.0927216235e+01 1.0927216235e+01 0.0000000000e+00 0.0000e+00 1.0000e+00
       25  1    1    2    0    0 +0.0000000000e+00 +0.0000000000e+00 +3.4655175332e+02 3.6840618579e+02 1.2500000000e+02 0.0000e+00 0.0000e+00
<mgrwt>
<rscale>  0 0.12500000E+03</rscale>
<asrwt>0</asrwt>
<pdfrwt beam="1">  1       21 0.54996756E-01 0.12500000E+03</pdfrwt>
<pdfrwt beam="2">  1       21 0.16811105E-02 0.12500000E+03</pdfrwt>
<totfact> 0.50207156E+06</totfact>
</mgrwt>
</event>
<event>
 3      1 +1.7592000e+01 1.25000000e+02 7.54677100e-03 1.23506900e-01
       21 -1    0    0  502  501 +0.0000000000e+00 +0.0000000000e+00 +7.4720684855e+00 7.4720684855e+00 0.0000000000e+00 0.0000e+00 -1.0000e+00
       21 -1    0    0  501  502 -0.0000000000e+00 -0.0000000000e+00 -5.2278027264e+02 5.2278027264e+02 0.0000000000e+00 0.0000e+00 -1.0000e+00
       25  1    1    2    0    0 +0.0000000000e+00 +0.0000000000e+00 -5.1530820415e+02 5.3025234112e+02 1.2500000000e+02 0.0000e+00 0.0000e+00
<mgrwt>
<rscale>  0 0.12500000E+03</rscale>
<asrwt>0</asrwt>
<pdfrwt beam="1">  1       21 0.11495490E-02 0.12500000E+03</pdfrwt>
<pdfrwt beam="2">  1       21 0.80427732E-01 0.12500000E+03</pdfrwt>
<totfact> 0.40449549E+06</totfact>
</mgrwt>
</event>
<event>
 3      1 +1.7592000e+01 1.25000000e+02 7.54677100e-03 1.23506900e-01
       21 -1    0    0  502  501 +0.0000000000e+00 +0.0000000000e+00 +3.5412037452e+02 3.5412037452e+02 0.0000000000e+00 0.0000e+00 1.0000e+00
       21 -1    0    0  501  502 -0.0000000000e+00 -0.0000000000e+00 -1.1030853577e+01 1.1030853577e+01 0.0000000000e+00 0.0000e+00 1.0000e+00
       25  1    1    2    0    0 +0.0000000000e+00 +0.0000000000e+00 +3.4308952094e+02 3.6515122810e+02 1.2500000000e+02 0.0000e+00 0.0000e+00
<mgrwt>
<rscale>  0 0.12500000E+03</rscale>
<asrwt>0</asrwt>
<pdfrwt beam="1">  1       21 0.54480049E-01 0.12500000E+03</pdfrwt>
<pdfrwt beam="2">  1       21 0.16970547E-02 0.12500000E+03</pdfrwt>
<totfact> 0.50438573E+06</totfact>
</mgrwt>
</event>
<event>
 3      1 +1.7592000e+01 1.25000000e+02 7.54677100e-03 1.23506900e-01
       21 -1    0    0  502  501 +0.0000000000e+00 +0.0000000000e+00 +1.1942620119e+02 1.1942620119e+02 0.0000000000e+00 0.0000e+00 1.0000e+00
       21 -1    0    0  501  502 -0.0000000000e+00 -0.0000000000e+00 -3.2708484076e+01 3.2708484076e+01 0.0000000000e+00 0.0000e+00 1.0000e+00
       25  1    1    2    0    0 +0.0000000000e+00 +0.0000000000e+00 +8.6717717117e+01 1.5213468527e+02 1.2500000000e+02 0.0000e+00 0.0000e+00
<mgrwt>
<rscale>  0 0.12500000E+03</rscale>
<asrwt>0</asrwt>
<pdfrwt beam="1">  1       21 0.18373261E-01 0.12500000E+03</pdfrwt>
<pdfrwt beam="2">  1       21 0.50320745E-02 0.12500000E+03</pdfrwt>
<totfact> 0.70492065E+06</totfact>
</mgrwt>
</event>
<event>
 3      1 +1.7592000e+01 1.25000000e+02 7.54677100e-03 1.23506900e-01
       21 -1    0    0  502  501 +0.0000000000e+00 +0.0000000000e+00 +1.5467619839e+02 1.5467619839e+02 0.0000000000e+00 0.0000e+00 1.0000e+00
       21 -1    0    0  501  502 -0.0000000000e+00 -0.0000000000e+00 -2.5254370360e+01 2.5254370360e+01 0.0000000000e+00 0.0000e+00 1.0000e+00
       25  1    1    2    0    0 +0.0000000000e+00 +0.0000000000e+00 +1.2942182803e+02 1.7993056875e+02 1.2500000000e+02 0.0000e+00 0.0000e+00
<mgrwt>
<rscale>  0 0.12500000E+03</rscale>
<asrwt>0</asrwt>
<pdfrwt beam="1">  1       21 0.23796338E-01 0.12500000E+03</pdfrwt>
<pdfrwt beam="2">  1       21 0.38852878E-02 0.12500000E+03</pdfrwt>
<totfact> 0.67159502E+06</totfact>
</mgrwt>
</event>
<event>
 3      1 +1.7592000e+01 1.25000000e+02 7.54677100e-03 1.23506900e-01
       21 -1    0    0  502  501 +0.0000000000e+00 +0.0000000000e+00 +4.8221271238e+00 4.8221271238e+00 0.0000000000e+00 0.0000e+00 -1.0000e+00
       21 -1    0    0  501  502 -0.0000000000e+00 -0.0000000000e+00 -8.1006781857e+02 8.1006781857e+02 0.0000000000e+00 0.0000e+00 -1.0000e+00
       25  1    1    2    0    0 +0.0000000000e+00 +0.0000000000e+00 -8.0524569144e+02 8.1488994569e+02 1.2500000000e+02 0.0000e+00 0.0000e+00
<mgrwt>
<rscale>  0 0.12500000E+03</rscale>
<asrwt>0</asrwt>
<pdfrwt beam="1">  1       21 0.74186597E-03 0.12500000E+03</pdfrwt>
<pdfrwt beam="2">  1       21 0.12462578E+00 0.12500000E+03</pdfrwt>
<totfact> 0.28875389E+06</totfact>
</mgrwt>
</event>
<event>
 3      1 +1.7592000e+01 1.25000000e+02 7.54677100e-03 1.23506900e-01
       21 -1    0    0  502  501 +0.0000000000e+00 +0.0000000000e+00 +2.1286940261e+01 2.1286940261e+01 0.0000000000e+00 0.0000e+00 1.0000e+00
       21 -1    0    0  501  502 -0.0000000000e+00 -0.0000000000e+00 -1.8350453152e+02 1.8350453152e+02 0.0000000000e+00 0.0000e+00 1.0000e+00
       25  1    1    2    0    0 +0.0000000000e+00 +0.0000000000e+00 -1.6221759125e+02 2.0479147178e+02 1.2500000000e+02 0.0000e+00 0.0000e+00
<mgrwt>
<rscale>  0 0.12500000E+03</rscale>
<asrwt>0</asrwt>
<pdfrwt beam="1">  1       21 0.32749138E-02 0.12500000E+03</pdfrwt>
<pdfrwt beam="2">  1       21 0.28231467E-01 0.12500000E+03</pdfrwt>
<totfact> 0.64411732E+06</totfact>
</mgrwt>
</event>
<event>
 3      1 +1.7592000e+01 1.25000000e+02 7.54677100e-03 1.23506900e-01
       21 -1    0    0  502  501 +0.0000000000e+00 +0.0000000000e+00 +4.1096817043e+01 4.1096817043e+01 0.0000000000e+00 0.0000e+00 -1.0000e+00
       21 -1    0    0  501  502 -0.0000000000e+00 -0.0000000000e+00 -9.5049940143e+01 9.5049940143e+01 0.0000000000e+00 0.0000e+00 -1.0000e+00
       25  1    1    2    0    0 +0.0000000000e+00 +0.0000000000e+00 -5.3953123100e+01 1.3614675719e+02 1.2500000000e+02 0.0000e+00 0.0000e+00
<mgrwt>
<rscale>  0 0.12500000E+03</rscale>
<asrwt>0</asrwt>
<pdfrwt beam="1">  1       21 0.63225874E-02 0.12500000E+03</pdfrwt>
<pdfrwt beam="2">  1       21 0.14623067E-01 0.12500000E+03</pdfrwt>
<totfact> 0.72544988E+06</totfact>
</mgrwt>
</event>
<event>
 3      1 +1.7592000e+01 1.25000000e+02 7.54677100e-03 1.23506900e-01
       21 -1    0    0  502  501 +0.0000000000e+00 +0.0000000000e+00 +8.2518920047e+01 8.2518920047e+01 0.0000000000e+00 0.0000e+00 1.0000e+00
       21 -1    0    0  501  502 -0.0000000000e+00 -0.0000000000e+00 -4.7337628725e+01 4.7337628725e+01 0.0000000000e+00 0.0000e+00 1.0000e+00
       25  1    1    2    0    0 +0.0000000000e+00 +0.0000000000e+00 +3.5181291322e+01 1.2985654877e+02 1.2500000000e+02 0.0000e+00 0.0000e+00
<mgrwt>
<rscale>  0 0.12500000E+03</rscale>
<asrwt>0</asrwt>
<pdfrwt beam="1">  1       21 0.12695218E-01 0.12500000E+03</pdfrwt>
<pdfrwt beam="2">  1       21 0.72827121E-02 0.12500000E+03</pdfrwt>
<totfact> 0.73384093E+06</totfact>
</mgrwt>
</event>
<event>
 3      1 +1.7592000e+01 1.25000000e+02 7.54677100e-03 1.23506900e-01
       21 -1    0    0  502  501 +0.0000000000e+00 +0.0000000000e+00 +5.3288799988e+00 5.3288799988e+00 0.0000000000e+00 0.0000e+00 -1.0000e+00
       21 -1    0    0  501  502 -0.0000000000e+00 -0.0000000000e+00 -7.3303395852e+02 7.3303395852e+02 0.0000000000e+00 0.0000e+00 -1.0000e+00
       25  1    1    2    0    0 +0.0000000000e+00 +0.0000000000e+00 -7.2770507852e+02 7.3836283852e+02 1.2500000000e+02 0.0000e+00 0.0000e+00
<mgrwt>
<rscale>  0 0.12500000E+03</rscale>
<asrwt>0</asrwt>
<pdfrwt beam="1">  1       21 0.81982766E-03 0.12500000E+03</pdfrwt>
<pdfrwt beam="2">  1       21 0.11277446E+00 0.12500000E+03</pdfrwt>
<totfact> 0.31482451E+06</totfact>
</mgrwt>
</event>
<event>
 3      1 +1.7592000e+01 1.25000000e+02 7.54677100e-03 1.23506900e-01
       21 -1    0    0  502  501 +0.0000000000e+00 +0.0000000000e+00 +3.9034354592e+02 3.9034354592e+02 0.0000000000e+00 0.0000e+00 1.0000e+00
       21 -1    0    0  501  502 -0.0000000000e+00 -0.0000000000e+00 -1.0007210420e+01 1.0007210420e+01 0.0000000000e+00 0.0000e+00 1.0000e+00
       25  1    1    2    0    0 +0.0000000000e+00 +0.0000000000e+00 +3.8033633550e+02 4.0035075634e+02 1.2500000000e+02 0.0000e+00 0.0000e+00
<mgrwt>
<rscale>  0 0.12500000E+03</rscale>
<asrwt>0</asrwt>
<pdfrwt beam="1">  1       21 0.60052842E-01 0.12500000E+03</pdfrwt>
<pdfrwt beam="2">  1       21 0.15395711E-02 0.12500000E+03</pdfrwt>
<totfact> 0.48018099E+06</totfact>
</mgrwt>
</event>
<event>
 3      1 +1.7592000e+01 1.25000000e+02 7.54677100e-03 1.23506900e-01
       21 -1    0    0  502  501 +0.0000000000e+00 +0.0000000000e+00 +9.8114145638e+01 9.8114145638e+01 0.0000000000e+00 0.0000e+00 -1.0000e+00
       21 -1    0    0  501  502 -0.0000000000e+00 -0.0000000000e+00 -3.9813321255e+01 3.9813321255e+01 0.0000000000e+00 0.0000e+00 -1.0000e+00
       25  1    1    2    0    0 +0.0000000000e+00 +0.0000000000e+00 +5.8300824383e+01 1.3792746689e+02 1.2500000000e+02 0.0000e+00 0.0000e+00
<mgrwt>
<rscale>  0 0.12500000E+03</rscale>
<asrwt>0</asrwt>
<pdfrwt beam="1">  1       21 0.15094484E-01 0.12500000E+03</pdfrwt>
<pdfrwt beam="2">  1       21 0.61251264E-02 0.12500000E+03</pdfrwt>
<totfact> 0.72311041E+06</totfact>
</mgrwt>
</event>
<event>
 3      1 +1.7592000e+01 1.25000000e+02 7.54677100e-03 1.23506900e-01
       21 -1    0    0  502  501 +0.0000000000e+00 +0.0000000000e+00 +6.4213724000e+00 6.4213724000e+00 0.0000000000e+00 0.0000e+00 -1.0000e+00
       21 -1    0    0  501  502 -0.0000000000e+00 -0.0000000000e+00 -6.0832011549e+02 6.0832011549e+02 0.0000000000e+00 0.0000e+00 -1.0000e+00
       25  1    1    2    0    0 +0.0000000000e+00 +0.0000000000e+00 -6.0189874309e+02 6.1474148789e+02 1.2500000000e+02 0.0000e+00 0.0000e+00
<mgrwt>
<rscale>  0 0.12500000E+03</rscale>
<asrwt>0</asrwt>
<pdfrwt beam="1">  1       21 0.98790361E-03 0.12500000E+03</pdfrwt>
<pdfrwt beam="2">  1       21 0.93587694E-01 0.12500000E+03</pdfrwt>
<totfact> 0.36434344E+06</totfact>
</mgrwt>
</event>
<event>
 3      1 +1.7592000e+01 1.25000000e+02 7.54677100e-03 1.23506900e-01
       21 -1    0    0  502  501 +0.0000000000e+00 +0.0000000000e+00 +2.4660804128e+01 2.4660804128e+01 0.0000000000e+00 0.0000e+00 -1.0000e+00
       21 -1    0    0  501  502 -0.0000000000e+00 -0.0000000000e+00 -1.5839913329e+02 1.5839913329e+02 0.0000000000e+00 0.0000e+00 -1.0000e+00
       25  1    1    2    0    0 +0.0000000000e+00 +0.0000000000e+00 -1.3373832916e+02 1.8305993741e+02 1.2500000000e+02 0.0000e+00 0.0000e+00
<mgrwt>
<rscale>  0 0.12500000E+03</rscale>
<asrwt>0</asrwt>
<pdfrwt beam="1">  1       21 0.37939700E-02 0.12500000E+03</pdfrwt>
<pdfrwt beam="2">  1       21 0.24369097E-01 0.12500000E+03</pdfrwt>
<totfact> 0.66802233E+06</totfact>
</mgrwt>
</event>
<event>
 3      1 +1.7592000e+01 1.25000000e+02 7.54677100e-03 1.23506900e-01
       21 -1    0    0  502  501 +0.0000000000e+00 +0.0000000000e+00 +1.4345628839e+02 1.4345628839e+02 0.0000000000e+00 0.0000e+00 -1.0000e+00
       21 -1    0    0  501  502 -0.0000000000e+00 -0.0000000000e+00 -2.7229548763e+01 2.7229548763e+01 0.0000000000e+00 0.0000e+00 -1.0000e+00
       25  1    1    2    0    0 +0.0000000000e+00 +0.0000000000e+00 +1.1622673963e+02 1.7068583715e+02 1.2500000000e+02 0.0000e+00 0.0000e+00
<mgrwt>
<rscale>  0 0.12500000E+03</rscale>
<asrwt>0</asrwt>
<pdfrwt beam="1">  1       21 0.22070198E-01 0.12500000E+03</pdfrwt>
<pdfrwt beam="2">  1       21 0.41891614E-02 0.12500000E+03</pdfrwt>
<totfact> 0.68236427E+06</totfact>
</mgrwt>
</event>
<event>
 3      1 +1.7592000e+01 1.25000000e+02 7.54677100e-03 1.23506900e-01
       21 -1    0    0  502  501 +0.0000000000e+00 +0.0000000000e+00 +1.3269824300e+01 1.3269824300e+01 0.0000000000e+00 0.0000e+00 1.0000e+00
       21 -1    0    0  501  502 -0.0000000000e+00 -0.0000000000e+00 -2.9437089080e+02 2.9437089080e+02 0.0000000000e+00 0.0000e+00 1.0000e+00
       25  1    1    2    0    0 +0.0000000000e+00 +0.0000000000e+00 -2.8110106650e+02 3.0764071510e+02 1.2500000000e+02 0.0000e+00 0.0000e+00
<mgrwt>
<rscale>  0 0.12500000E+03</rscale>
<asrwt>0</asrwt>
<pdfrwt beam="1">  1       21 0.20415112E-02 0.12500000E+03</pdfrwt>
<pdfrwt beam="2">  1       21 0.45287833E-01 0.12500000E+03</pdfrwt>
<totfact> 0.54827116E+06</totfact>
</mgrwt>
</event>
<event>
 3      1 +1.7592000e+01 1.25000000e+02 7.54677100e-03 1.23506900e-01
       21 -1    0    0  502  501 +0.0000000000e+00 +0.0000000000e+00 +2.8485760040e+01 2.8485760040e+01 0.0000000000e+00 0.0000e+00 1.0000e+00
       21 -1    0    0  501  502 -0.0000000000e+00 -0.0000000000e+00 -1.3712992016e+02 1.3712992016e+02 0.0000000000e+00 0.0000e+00 1.0000e+00
       25  1    1    2    0    0 +0.0000000000e+00 +0.0000000000e+00 -1.0864416012e+02 1.6561568020e+02 1.2500000000e+02 0.0000e+00 0.0000e+00
<mgrwt>
<rscale>  0 0.12500000E+03</rscale>
<asrwt>0</asrwt>
<pdfrwt beam="1">  1       21 0.43824247E-02 0.12500000E+03</pdfrwt>
<pdfrwt beam="2">  1       21 0.21096910E-01 0.12500000E+03</pdfrwt>
<totfact> 0.68839748E+06</totfact>
</mgrwt>
</event>
<event>
 3      1 +1.7592000e+01 1.25000000e+02 7.54677100e-03 1.23506900e-01
       21 -1    0    0  502  501 +0.0000000000e+00 +0.0000000000e+00 +2.1637816666e+01 2.1637816666e+01 0.0000000000e+00 0.0000e+00 -1.0000e+00
       21 -1    0    0  501  502 -0.0000000000e+00 -0.0000000000e+00 -1.8052884264e+02 1.8052884264e+02 0.0000000000e+00 0.0000e+00 -1.0000e+00
       25  1    1    2    0    0 +0.0000000000e+00 +0.0000000000e+00 -1.5889102597e+02 2.0216665930e+02 1.2500000000e+02 0.0000e+00 0.0000e+00
<mgrwt>
<rscale>  0 0.12500000E+03</rscale>
<asrwt>0</asrwt>
<pdfrwt beam="1">  1       21 0.33288950E-02 0.12500000E+03</pdfrwt>
<pdfrwt beam="2">  1       21 0.27773667E-01 0.12500000E+03</pdfrwt>
<totfact> 0.64693235E+06</totfact>
</mgrwt>
</event>
<event>
 3      1 +1.7592000e+01 1.25000000e+02 7.54677100e-03 1.23506900e-01
       21 -1    0    0  502  501 +0.0000000000e+00 +0.0000000000e+00 +1.9679974762e+01 1.9679974762e+01 0.0000000000e+00 0.0000e+00 -1.0000e+00
       21 -1    0    0  501  502 -0.0000000000e+00 -0.0000000000e+00 -1.9848856755e+02 1.9848856755e+02 0.0000000000e+00 0.0000e+00 -1.0000e+00
       25  1    1    2    0    0 +0.0000000000e+00 +0.0000000000e+00 -1.7880859279e+02 2.1816854232e+02 1.2500000000e+02 0.0000e+00 0.0000e+00
<mgrwt>
<rscale>  0 0.12500000E+03</rscale>
<asrwt>0</asrwt>
<pdfrwt beam="1">  1       21 0.30276883E-02 0.12500000E+03</pdfrwt>
<pdfrwt beam="2">  1       21 0.30536704E-01 0.12500000E+03</pdfrwt>
<totfact> 0.63010226E+06</totfact>
</mgrwt>
</event>
<event>
 3      1 +1.7592000e+01 1.25000000e+02 7.54677100e-03 1.23506900e-01
       21 -1    0    0  502  501 +0.0000000000e+00 +0.0000000000e+00 +3.0384654965e+01 3.0384654965e+01 0.0000000000e+00 0.0000e+00 1.0000e+00
       21 -1    0    0  501  502 -0.0000000000e+00 -0.0000000000e+00 -1.2855995911e+02 1.2855995911e+02 0.0000000000e+00 0.0000e+00 1.0000e+00
       25  1    1    2    0    0 +0.0000000000e+00 +0.0000000000e+00 -9.8175304149e+01 1.5894461408e+02 1.2500000000e+02 0.0000e+00 0.0000e+00
<mgrwt>
<rscale>  0 0.12500000E+03</rscale>
<asrwt>0</asrwt>
<pdfrwt beam="1">  1       21 0.46745622E-02 0.12500000E+03</pdfrwt>
<pdfrwt beam="2">  1       21 0.19778456E-01 0.12500000E+03</pdfrwt>
<totfact> 0.69648683E+06</totfact>
</mgrwt>
</event>
<event>
 3      1 +1.7592000e+01 1.25000000e+02 7.54677100e-03 1.23506900e-01
       21 -1    0    0  502  501 +0.0000000000e+00 +0.0000000000e+00 +1.3704410630e+02 1.3704410630e+02 0.0000000000e+00 0.0000e+00 -1.0000e+00
       21 -1    0    0  501  502 -0.0000000000e+00 -0.0000000000e+00 -2.8503597166e+01 2.8503597166e+01 0.0000000000e+00 0.0000e+00 -1.0000e+00
       25  1    1    2    0    0 +0.0000000000e+00 +0.0000000000e+00 +1.0854050914e+02 1.6554770347e+02 1.2500000000e+02 0.0000e+00 0.0000e+00
<mgrwt>
<rscale>  0 0.12500000E+03</rscale>
<asrwt>0</asrwt>
<pdfrwt beam="1">  1       21 0.21083708E-01 0.12500000E+03</pdfrwt>
<pdfrwt beam="2">  1       21 0.43851689E-02 0.12500000E+03</pdfrwt>
<totfact> 0.68847900E+06</totfact>
</mgrwt>
</event>
<event>
 3      1 +1.7592000e+01 1.25000000e+02 7.54677100e-03 1.23506900e-01
       21 -1    0    0  502  501 +0.0000000000e+00 +0.0000000000e+00 +3.8636823225e+02 3.8636823225e+02 0.0000000000e+00 0.0000e+00 -1.0000e+00
       21 -1    0    0  501  502 -0.0000000000e+00 -0.0000000000e+00 -1.0110173855e+01 1.0110173855e+01 0.0000000000e+00 0.0000e+00 -1.0000e+00
       25  1    1    2    0    0 +0.0000000000e+00 +0.0000000000e+00 +3.7625805839e+02 3.9647840610e+02 1.2500000000e+02 0.0000e+00 0.0000e+00
<mgrwt>
<rscale>  0 0.12500000E+03</rscale>
<asrwt>0</asrwt>
<pdfrwt beam="1">  1       21 0.59441255E-01 0.12500000E+03</pdfrwt>
<pdfrwt beam="2">  1       21 0.15554117E-02 0.12500000E+03</pdfrwt>
<totfact> 0.48275819E+06</totfact>
</mgrwt>
</event>
<event>
 3      1 +1.7592000e+01 1.25000000e+02 7.54677100e-03 1.23506900e-01
       21 -1    0    0  502  501 +0.0000000000e+00 +0.0000000000e+00 +2.4211139939e+00 2.4211139939e+00 0.0000000000e+00 0.0000e+00 -1.0000e+00
       21 -1    0    0  501  502 -0.0000000000e+00 -0.0000000000e+00 -1.6134101946e+03 1.6134101946e+03 0.0000000000e+00 0.0000e+00 -1.0000e+00
       25  1    1    2    0    0 +0.0000000000e+00 +0.0000000000e+00 -1.6109890806e+03 1.6158313085e+03 1.2500000000e+02 0.0000e+00 0.0000e+00
<mgrwt>
<rscale>  0 0.12500000E+03</rscale>
<asrwt>0</asrwt>
<pdfrwt beam="1">  1       21 0.37248033E-03 0.12500000E+03</pdfrwt>
<pdfrwt beam="2">  1       21 0.24821612E+00 0.12500000E+03</pdfrwt>
<totfact> 0.12360076E+06</totfact>
</mgrwt>
</event>
<event>
 3      1 +1.7592000e+01 1.25000000e+02 7.54677100e-03 1.23506900e-01
       21 -1    0    0  502  501 +0.0000000000e+00 +0.0000000000e+00 +5.4605086358e+01 5.4605086358e+01 0.0000000000e+00 0.0000e+00 1.0000e+00
       21 -1    0    0  501  502 -0.0000000000e+00 -0.0000000000e+00 -7.1536376198e+01 7.1536376198e+01 0.0000000000e+00 0.0000e+00 1.0000e+00
       25  1    1    2    0    0 +0.0000000000e+00 +0.0000000000e+00 -1.6931289840e+01 1.2614146256e+02 1.2500000000e+02 0.0000e+00 0.0000e+00
<mgrwt>
<rscale>  0 0.12500000E+03</rscale>
<asrwt>0</asrwt>
<pdfrwt beam="1">  1       21 0.84007825E-02 0.12500000E+03</pdfrwt>
<pdfrwt beam="2">  1       21 0.11005596E-01 0.12500000E+03</pdfrwt>
<totfact> 0.73886558E+06</totfact>
</mgrwt>
</event>
<event>
 3      1 +1.7592000e+01 1.25000000e+02 7.54677100e-03 1.23506900e-01
       21 -1    0    0  502  501 +0.0000000000e+00 +0.0000000000e+00 +6.5730387003e+02 6.5730387003e+02 0.0000000000e+00 0.0000e+00 1.0000e+00
       21 -1    0    0  501  502 -0.0000000000e+00 -0.0000000000e+00 -5.9428373666e+00 5.9428373666e+00 0.0000000000e+00 0.0000e+00 1.0000e+00
       25  1    1    2    0    0 +0.0000000000e+00 +0.0000000000e+00 +6.5136103266e+02 6.6324670739e+02 1.2500000000e+02 0.0000e+00 0.0000e+00
<mgrwt>
<rscale>  0 0.12500000E+03</rscale>
<asrwt>0</asrwt>
<pdfrwt beam="1">  1       21 0.10112362E+00 0.12500000E+03</pdfrwt>
<pdfrwt beam="2">  1       21 0.91428319E-03 0.12500000E+03</pdfrwt>
<totfact> 0.34375754E+06</totfact>
</mgrwt>
</event>
<event>
 3      1 +1.7592000e+01 1.25000000e+02 7.54677100e-03 1.23506900e-01
       21 -1    0    0  502  501 +0.0000000000e+00 +0.0000000000e+00 +8.0855515707e+02 8.0855515707e+02 0.0000000000e+00 0.0000e+00 -1.0000e+00
       21 -1    0    0  501  502 -0.0000000000e+00 -0.0000000000e+00 -4.8311484577e+00 4.8311484577e+00 0.0000000000e+00 0.0000e+00 -1.0000e+00
       25  1    1    2    0    0 +0.0000000000e+00 +0.0000000000e+00 +8.0372400861e+02 8.1338630552e+02 1.2500000000e+02 0.0000e+00 0.0000e+00
<mgrwt>
<rscale>  0 0.12500000E+03</rscale>
<asrwt>0</asrwt>
<pdfrwt beam="1">  1       21 0.12439299E+00 0.12500000E+03</pdfrwt>
<pdfrwt beam="2">  1       21 0.74325425E-03 0.12500000E+03</pdfrwt>
<totfact> 0.28924091E+06</totfact>
</mgrwt>
</event>
<event>
 3      1 +1.7592000e+01 1.25000000e+02 7.54677100e-03 1.23506900e-01
       21 -1    0    0  502  501 +0.0000000000e+00 +0.0000000000e+00 +1.4408810401e+01 1.4408810401e+01 0.0000000000e+00 0.0000e+00 1.0000e+00
       21 -1    0    0  501  502 -0.0000000000e+00 -0.0000000000e+00 -2.7110149217e+02 2.7110149217e+02 0.0000000000e+00 0.0000e+00 1.0000e+00
       25  1    1    2    0    0 +0.0000000000e+00 +0.0000000000e+00 -2.5669268177e+02 2.8551030257e+02 1.2500000000e+02 0.0000e+00 0.0000e+00
<mgrwt>
<rscale>  0 0.12500000E+03</rscale>
<asrwt>0</asrwt>
<pdfrwt beam="1">  1       21 0.22167404E-02 0.12500000E+03</pdfrwt>
<pdfrwt beam="2">  1       21 0.41707916E-01 0.12500000E+03</pdfrwt>
<totfact> 0.56682242E+06</totfact>
</mgrwt>
</event>
<event>
 3      1 +1.7592000e+01 1.25000000e+02 7.54677100e-03 1.23506900e-01
       21 -1    0    0  502  501 +0.0000000000e+00 +0.0000000000e+00 +4.2757307172e+00 4.2757307172e+00 0.0000000000e+00 0.0000e+00 -1.0000e+00
       21 -1    0    0  501  502 -0.0000000000e+00 -0.0000000000e+00 -9.1358653254e+02 9.1358653254e+02 0.0000000000e+00 0.0000e+00 -1.0000e+00
       25  1    1    2    0    0 +0.0000000000e+00 +0.0000000000e+00 -9.0931080182e+02 9.1786226325e+02 1.2500000000e+02 0.0000e+00 0.0000e+00
<mgrwt>
<rscale>  0 0.12500000E+03</rscale>
<asrwt>0</asrwt>
<pdfrwt beam="1">  1       21 0.65780458E-03 0.12500000E+03</pdfrwt>
<pdfrwt beam="2">  1       21 0.14055181E+00 0.12500000E+03</pdfrwt>
<totfact> 0.25791996E+06</totfact>
</mgrwt>
</event>
<event>
 3      1 +1.7592000e+01 1.25000000e+02 7.54677100e-03 1.23506900e-01
       21 -1    0    0  502  501 +0.0000000000e+00 +0.0000000000e+00 +4.9177400396e+00 4.9177400396e+00 0.0000000000e+00 0.0000e+00 -1.0000e+00
       21 -1    0    0  501  502 -0.0000000000e+00 -0.0000000000e+00 -7.9431811535e+02 7.9431811535e+02 0.0000000000e+00 0.0000e+00 -1.0000e+00
       25  1    1    2    0    0 +0.0000000000e+00 +0.0000000000e+00 -7.8940037531e+02 7.9923585539e+02 1.2500000000e+02 0.0000e+00 0.0000e+00
<mgrwt>
<rscale>  0 0.12500000E+03</rscale>
<asrwt>0</asrwt>
<pdfrwt beam="1">  1       21 0.75657693E-03 0.12500000E+03</pdfrwt>
<pdfrwt beam="2">  1       21 0.12220254E+00 0.12500000E+03</pdfrwt>
<totfact> 0.29388202E+06</totfact>
</mgrwt>
</event>
<event>
 3      1 +1.7592000e+01 1.25000000e+02 7.54677100e-03 1.23506900e-01
       21 -1    0    0  502  501 +0.0000000000e+00 +0.0000000000e+00 +3.9254754301e+01 3.9254754301e+01 0.0000000000e+00 0.0000e+00 -1.0000e+00
       21 -1    0    0  501  502 -0.0000000000e+00 -0.0000000000e+00 -9.9510239449e+01 9.9510239449e+01 0.0000000000e+00 0.0000e+00 -1.0000e+00
       25  1    1    2    0    0 +0.0000000000e+00 +0.0000000000e+00 -6.0255485149e+01 1.3876499375e+02 1.2500000000e+02 0.0000e+00 0.0000e+00
<mgrwt>
<rscale>  0 0.12500000E+03</rscale>
<asrwt>0</asrwt>
<pdfrwt beam="1">  1       21 0.60391929E-02 0.12500000E+03</pdfrwt>
<pdfrwt beam="2">  1       21 0.15309268E-01 0.12500000E+03</pdfrwt>
<totfact> 0.72200948E+06</totfact>
</mgrwt>
</event>
<event>
 3      1 +1.7592000e+01 1.25000000e+02 7.54677100e-03 1.23506900e-01
       21 -1    0    0  502  501 +0.0000000000e+00 +0.0000000000e+00 +2.0845885743e+02 2.0845885743e+02 0.0000000000e+00 0.0000e+00 1.0000e+00
       21 -1    0    0  501  502 -0.0000000000e+00 -0.0000000000e+00 -1.8738709634e+01 1.8738709634e+01 0.0000000000e+00 0.0000e+00 1.0000e+00
       25  1    1    2    0    0 +0.0000000000e+00 +0.0000000000e+00 +1.8972014780e+02 2.2719756707e+02 1.2500000000e+02 0.0000e+00 0.0000e+00
<mgrwt>
<rscale>  0 0.12500000E+03</rscale>
<asrwt>0</asrwt>
<pdfrwt beam="1">  1       21 0.32070592E-01 0.12500000E+03</pdfrwt>
<pdfrwt beam="2">  1       21 0.28828786E-02 0.12500000E+03</pdfrwt>
<totfact> 0.62093981E+06</totfact>
</mgrwt>
</event>
<event>
 3      1 +1.7592000e+01 1.25000000e+02 7.54677100e-03 1.23506900e-01
       21 -1    0    0  502  501 +0.0000000000e+00 +0.0000000000e+00 +3.2877748302e+00 3.2877748302e+00 0.0000000000e+00 0.0000e+00 -1.0000e+00
       21 -1    0    0  501  502 -0.0000000000e+00 -0.0000000000e+00 -1.1881136032e+03 1.1881136032e+03 0.0000000000e+00 0.0000e+00 -1.0000e+00
       25  1    1    2    0    0 +0.0000000000e+00 +0.0000000000e+00 -1.1848258283e+03 1.1914013780e+03 1.2500000000e+02 0.0000e+00 0.0000e+00
<mgrwt>
<rscale>  0 0.12500000E+03</rscale>
<asrwt>0</asrwt>
<pdfrwt beam="1">  1       21 0.50581218E-03 0.12500000E+03</pdfrwt>
<pdfrwt beam="2">  1       21 0.18278647E+00 0.12500000E+03</pdfrwt>
<totfact> 0.19315600E+06</totfact>
</mgrwt>
</event>
<event>
 3      1 +1.7592000e+01 1.25000000e+02 7.54677100e-03 1.23506900e-01
       21 -1    0    0  502  501 +0.0000000000e+00 +0.0000000000e+00 +8.9301719122e+01 8.9301719122e+01 0.0000000000e+00 0.0000e+00 1.0000e+00
       21 -1    0    0  501  502 -0.0000000000e+00 -0.0000000000e+00 -4.3742159036e+01 4.3742159036e+01 0.0000000000e+00 0.0000e+00 1.0000e+00
       25  1    1    2    0    0 +0.0000000000e+00 +0.0000000000e+00 +4.5559560086e+01 1.3304387816e+02 1.2500000000e+02 0.0000e+00 0.0000e+00
<mgrwt>
<rscale>  0 0.12500000E+03</rscale>
<asrwt>0</asrwt>
<pdfrwt beam="1">  1       21 0.13738726E-01 0.12500000E+03</pdfrwt>
<pdfrwt beam="2">  1       21 0.67295629E-02 0.12500000E+03</pdfrwt>
<totfact> 0.72956540E+06</totfact>
</mgrwt>
</event>
<event>
 3      1 +1.7592000e+01 1.25000000e+02 7.54677100e-03 1.23506900e-01
       21 -1    0    0  502  501 +0.0000000000e+00 +0.0000000000e+00 +9.7840365201e+01 9.7840365201e+01 0.0000000000e+00 0.0000e+00 -1.0000e+00
       21 -1    0    0  501  502 -0.0000000000e+00 -0.0000000000e+00 -3.9924728326e+01 3.9924728326e+01 0.0000000000e+00 0.0000e+00 -1.0000e+00
       25  1    1    2    0    0 +0.0000000000e+00 +0.0000000000e+00 +5.7915636875e+01 1.3776509353e+02 1.2500000000e+02 0.0000e+00 0.0000e+00
<mgrwt>
<rscale>  0 0.12500000E+03</rscale>
<asrwt>0</asrwt>
<pdfrwt beam="1">  1       21 0.15052364E-01 0.12500000E+03</pdfrwt>
<pdfrwt beam="2">  1       21 0.61422659E-02 0.12500000E+03</pdfrwt>
<totfact> 0.72332382E+06</totfact>
</mgrwt>
</event>
<event>
 3      1 +1.7592000e+01 1.25000000e+02 7.54677100e-03 1.23506900e-01
       21 -1    0    0  502  501 +0.0000000000e+00 +0.0000000000e+00 +3.7150015478e+00 3.7150015478e+00 0.0000000000e+00 0.0000e+00 1.0000e+00
       21 -1    0    0  501  502 -0.0000000000e+00 -0.0000000000e+00 -1.0514800465e+03 1.0514800465e+03 0.0000000000e+00 0.0000e+00 1.0000e+00
       25  1    1    2    0    0 +0.0000000000e+00 +0.0000000000e+00 -1.0477650449e+03 1.0551950480e+03 1.2500000000e+02 0.0000e+00 0.0000e+00
<mgrwt>
<rscale>  0 0.12500000E+03</rscale>
<asrwt>0</asrwt>
<pdfrwt beam="1">  1       21 0.57153870E-03 0.12500000E+03</pdfrwt>
<pdfrwt beam="2">  1       21 0.16176616E+00 0.12500000E+03</pdfrwt>
<totfact> 0.22276362E+06</totfact>
</mgrwt>
</event>
<event>
 3      1 +1.7592000e+01 1.25000000e+02 7.54677100e-03 1.23506900e-01
       21 -1    0    0  502  501 +0.0000000000e+00 +0.0000000000e+00 +2.1009986358e+02 2.1009986358e+02 0.0000000000e+00 0.0000e+00 -1.0000e+00
       21 -1    0    0  501  502 -0.0000000000e+00 -0.0000000000e+00 -1.8592349055e+01 1.8592349055e+01 0.0000000000e+00 0.0000e+00 -1.0000e+00
       25  1    1    2    0    0 +0.0000000000e+00 +0.0000000000e+00 +1.9150751452e+02 2.2869221263e+02 1.2500000000e+02 0.0000e+00 0.0000e+00
<mgrwt>
<rscale>  0 0.12500000E+03</rscale>
<asrwt>0</asrwt>
<pdfrwt beam="1">  1       21 0.32323054E-01 0.12500000E+03</pdfrwt>
<pdfrwt beam="2">  1       21 0.28603615E-02 0.12500000E+03</pdfrwt>
<totfact> 0.61944369E+06</totfact>
</mgrwt>
</event>
<event>
 3      1 +1.7592000e+01 1.25000000e+02 7.54677100e-03 1.23506900e-01
       21 -1    0    0  502  501 +0.0000000000e+00 +0.0000000000e+00 +6.5011013843e+02 6.5011013843e+02 0.0000000000e+00 0.0000e+00 -1.0000e+00
       21 -1    0    0  501  502 -0.0000000000e+00 -0.0000000000e+00 -6.0085972654e+00 6.0085972654e+00 0.0000000000e+00 0.0000e+00 -1.0000e+00
       25  1    1    2    0    0 +0.0000000000e+00 +0.0000000000e+00 +6.4410154116e+02 6.5611873569e+02 1.2500000000e+02 0.0000e+00 0.0000e+00
<mgrwt>
<rscale>  0 0.12500000E+03</rscale>
<asrwt>0</asrwt>
<pdfrwt beam="1">  1       21 0.10001689E+00 0.12500000E+03</pdfrwt>
<pdfrwt beam="2">  1       21 0.92440009E-03 0.12500000E+03</pdfrwt>
<totfact> 0.34671289E+06</totfact>
</mgrwt>
</event>
<event>
 3      1 +1.7592000e+01 1.25000000e+02 7.54677100e-03 1.23506900e-01
       21 -1    0    0  502  501 +0.0000000000e+00 +0.0000000000e+00 +8.1890397718e+02 8.1890397718e+02 0.0000000000e+00 0.0000e+00 1.0000e+00
       21 -1    0    0  501  502 -0.0000000000e+00 -0.0000000000e+00 -4.7700952845e+00 4.7700952845e+00 0.0000000000e+00 0.0000e+00 1.0000e+00
       25  1    1    2    0    0 +0.0000000000e+00 +0.0000000000e+00 +8.1413388190e+02 8.2367407247e+02 1.2500000000e+02 0.0000e+00 0.0000e+00
<mgrwt>
<rscale>  0 0.12500000E+03</rscale>
<asrwt>0</asrwt>
<pdfrwt beam="1">  1       21 0.12598512E+00 0.12500000E+03</pdfrwt>
<pdfrwt beam="2">  1       21 0.73386146E-03 0.12500000E+03</pdfrwt>
<totfact> 0.28593340E+06</totfact>
</mgrwt>
</event>
<event>
 3      1 +1.7592000e+01 1.25000000e+02 7.54677100e-03 1.23506900e-01
       21 -1    0    0  502  501 +0.0000000000e+00 +0.0000000000e+00 +9.8298469260e+00 9.8298469260e+00 0.0000000000e+00 0.0000e+00 1.0000e+00
       21 -1    0    0  501  502 -0.0000000000e+00 -0.0000000000e+00 -3.9738665611e+02 3.9738665611e+02 0.0000000000e+00 0.0000e+00 1.0000e+00
       25  1    1    2    0    0 +0.0000000000e+00 +0.0000000000e+00 -3.8755680918e+02 4.0721650304e+02 1.2500000000e+02 0.0000e+00 0.0000e+00
<mgrwt>
<rscale>  0 0.12500000E+03</rscale>
<asrwt>0</asrwt>
<pdfrwt beam="1">  1       21 0.15122843E-02 0.12500000E+03</pdfrwt>
<pdfrwt beam="2">  1       21 0.61136401E-01 0.12500000E+03</pdfrwt>
<totfact> 0.47566346E+06</totfact>
</mgrwt>
</event>
<event>
 3      1 +1.7592000e+01 1.25000000e+02 7.54677100e-03 1.23506900e-01
       21 -1    0    0  502  501 +0.0000000000e+00 +0.0000000000e+00 +3.1709249615e+02 3.1709249615e+02 0.0000000000e+00 0.0000e+00 -1.0000e+00
       21 -1    0    0  501  502 -0.0000000000e+00 -0.0000000000e+00 -1.2318960705e+01 1.2318960705e+01 0.0000000000e+00 0.0000e+00 -1.0000e+00
       25  1    1    2    0    0 +0.0000000000e+00 +0.0000000000e+00 +3.0477353545e+02 3.2941145686e+02 1.2500000000e+02 0.0000e+00 0.0000e+00
<mgrwt>
<rscale>  0 0.12500000E+03</rscale>
<asrwt>0</asrwt>
<pdfrwt beam="1">  1       21 0.48783455E-01 0.12500000E+03</pdfrwt>
<pdfrwt beam="2">  1       21 0.18952250E-02 0.12500000E+03</pdfrwt>
<totfact> 0.53095862E+06</totfact>
</mgrwt>
</event>
<event>
 3      1 +1.7592000e+01 1.25000000e+02 7.54677100e-03 1.23506900e-01
       21 -1    0    0  502  501 +0.0000000000e+00 +0.0000000000e+00 +1.1945879704e+02 1.1945879704e+02 0.0000000000e+00 0.0000e+00 -1.0000e+00
       21 -1    0    0  501  502 -0.0000000000e+00 -0.0000000000e+00 -3.2699559151e+01 3.2699559151e+01 0.0000000000e+00 0.0000e+00 -1.0000e+00
       25  1    1    2    0    0 +0.0000000000e+00 +0.0000000000e+00 +8.6759237892e+01 1.5215835619e+02 1.2500000000e+02 0.0000e+00 0.0000e+00
<mgrwt>
<rscale>  0 0.12500000E+03</rscale>
<asrwt>0</asrwt>
<pdfrwt beam="1">  1       21 0.18378276E-01 0.12500000E+03</pdfrwt>
<pdfrwt beam="2">  1       21 0.50307015E-02 0.12500000E+03</pdfrwt>
<totfact> 0.70489114E+06</totfact>
</mgrwt>
</event>
<event>
 3      1 +1.7592000e+01 1.25000000e+02 7.54677100e-03 1.23506900e-01
       21 -1    0    0  502  501 +0.0000000000e+00 +0.0000000000e+00 +1.7356034691e+02 1.7356034691e+02 0.0000000000e+00 0.0000e+00 -1.0000e+00
       21 -1    0    0  501  502 -0.0000000000e+00 -0.0000000000e+00 -2.2506580965e+01 2.2506580965e+01 0.0000000000e+00 0.0000e+00 -1.0000e+00
       25  1    1    2    0    0 +0.0000000000e+00 +0.0000000000e+00 +1.5105376595e+02 1.9606692788e+02 1.2500000000e+02 0.0000e+00 0.0000e+00
<mgrwt>
<rscale>  0 0.12500000E+03</rscale>
<asrwt>0</asrwt>
<pdfrwt beam="1">  1       21 0.26701591E-01 0.12500000E+03</pdfrwt>
<pdfrwt beam="2">  1       21 0.34625510E-02 0.12500000E+03</pdfrwt>
<totfact> 0.65354440E+06</totfact>
</mgrwt>
</event>
<event>
 3      1 +1.7592000e+01 1.25000000e+02 7.54677100e-03 1.23506900e-01
       21 -1    0    0  502  501 +0.0000000000e+00 +0.0000000000e+00 +8.8068570266e+01 8.8068570266e+01 0.0000000000e+00 0.0000e+00 1.0000e+00
       21 -1    0    0  501  502 -0.0000000000e+00 -0.0000000000e+00 -4.4354643072e+01 4.4354643072e+01 0.0000000000e+00 0.0000e+00 1.0000e+00
       25  1    1    2    0    0 +0.0000000000e+00 +0.0000000000e+00 +4.3713927194e+01 1.3242321334e+02 1.2500000000e+02 0.0000e+00 0.0000e+00
<mgrwt>
<rscale>  0 0.12500000E+03</rscale>
<asrwt>0</asrwt>
<pdfrwt beam="1">  1       21 0.13549011E-01 0.12500000E+03</pdfrwt>
<pdfrwt beam="2">  1       21 0.68237912E-02 0.12500000E+03</pdfrwt>
<totfact> 0.73039517E+06</totfact>
</mgrwt>
</event>
<event>
 3      1 +1.7592000e+01 1.25000000e+02 7.54677100e-03 1.23506900e-01
       21 -1    0    0  502  501 +0.0000000000e+00 +0.0000000000e+00 +1.8092499908e+03 1.8092499908e+03 0.0000000000e+00 0.0000e+00 1.0000e+00
       21 -1    0    0  501  502 -0.0000000000e+00 -0.0000000000e+00 -2.1590438137e+00 2.1590438137e+00 0.0000000000e+00 0.0000e+00 1.0000e+00
       25  1    1    2    0    0 +0.0000000000e+00 +0.0000000000e+00 +1.8070909470e+03 1.8114090346e+03 1.2500000000e+02 0.0000e+00 0.0000e+00
<mgrwt>
<rscale>  0 0.12500000E+03</rscale>
<asrwt>0</asrwt>
<pdfrwt beam="1">  1       21 0.27834494E+00 0.12500000E+03</pdfrwt>
<pdfrwt beam="2">  1       21 0.33216203E-03 0.12500000E+03</pdfrwt>
<totfact> 0.99393366E+05</totfact>
</mgrwt>
</event>
<event>
 3      1 +1.7592000e+01 1.25000000e+02 7.54677100e-03 1.23506900e-01
       21 -1    0    0  502  501 +0.0000000000e+00 +0.0000000000e+00 +2.9523014863e+01 2.9523014863e+01 0.0000000000e+00 0.0000e+00 -1.0000e+00
       21 -1    0    0  501  502 -0.0000000000e+00 -0.0000000000e+00 -1.3231202904e+02 1.3231202904e+02 0.0000000000e+00 0.0000e+00 -1.0000e+00
       25  1    1    2    0    0 +0.0000000000e+00 +0.0000000000e+00 -1.0278901418e+02 1.6183504391e+02 1.2500000000e+02 0.0000e+00 0.0000e+00
<mgrwt>
<rscale>  0 0.12500000E+03</rscale>
<asrwt>0</asrwt>
<pdfrwt beam="1">  1       21 0.45420023E-02 0.12500000E+03</pdfrwt>
<pdfrwt beam="2">  1       21 0.20355697E-01 0.12500000E+03</pdfrwt>
<totfact> 0.69295966E+06</totfact>
</mgrwt>
</event>
<event>
 3      1 +1.7592000e+01 1.25000000e+02 7.54677100e-03 1.23506900e-01
       21 -1    0    0  502  501 +0.0000000000e+00 +0.0000000000e+00 +2.0248474750e+02 2.0248474750e+02 0.0000000000e+00 0.0000e+00 -1.0000e+00
       21 -1    0    0  501  502 -0.0000000000e+00 -0.0000000000e+00 -1.9291576517e+01 1.9291576517e+01 0.0000000000e+00 0.0000e+00 -1.0000e+00
       25  1    1    2    0    0 +0.0000000000e+00 +0.0000000000e+00 +1.8319317099e+02 2.2177632402e+02 1.2500000000e+02 0.0000e+00 0.0000e+00
<mgrwt>
<rscale>  0 0.12500000E+03</rscale>
<asrwt>0</asrwt>
<pdfrwt beam="1">  1       21 0.31151498E-01 0.12500000E+03</pdfrwt>
<pdfrwt beam="2">  1       21 0.29679350E-02 0.12500000E+03</pdfrwt>
<totfact> 0.62641432E+06</totfact>
</mgrwt>
</event>
<event>
 3      1 +1.7592000e+01 1.25000000e+02 7.54677100e-03 1.23506900e-01
       21 -1    0    0  502  501 +0.0000000000e+00 +0.0000000000e+00 +3.6372395340e+01 3.6372395340e+01 0.0000000000e+00 0.0000e+00 -1.0000e+00
       21 -1    0    0  501  502 -0.0000000000e+00 -0.0000000000e+00 -1.0739600632e+02 1.0739600632e+02 0.0000000000e+00 0.0000e+00 -1.0000e+00
       25  1    1    2    0    0 +0.0000000000e+00 +0.0000000000e+00 -7.1023610984e+01 1.4376840166e+02 1.2500000000e+02 0.0000e+00 0.0000e+00
<mgrwt>
<rscale>  0 0.12500000E+03</rscale>
<asrwt>0</asrwt>
<pdfrwt beam="1">  1       21 0.55957532E-02 0.12500000E+03</pdfrwt>
<pdfrwt beam="2">  1       21 0.16522462E-01 0.12500000E+03</pdfrwt>
<totfact> 0.71551088E+06</totfact>
</mgrwt>
</event>
<event>
 3      1 +1.7592000e+01 1.25000000e+02 7.54677100e-03 1.23506900e-01
       21 -1    0    0  502  501 +0.0000000000e+00 +0.0000000000e+00 +1.2272654384e+01 1.2272654384e+01 0.0000000000e+00 0.0000e+00 -1.0000e+00
       21 -1    0    0  501  502 -0.0000000000e+00 -0.0000000000e+00 -3.1828892737e+02 3.1828892737e+02 0.0000000000e+00 0.0000e+00 -1.0000e+00
       25  1    1    2    0    0 +0.0000000000e+00 +0.0000000000e+00 -3.0601627299e+02 3.3056158176e+02 1.2500000000e+02 0.0000e+00 0.0000e+00
<mgrwt>
<rscale>  0 0.12500000E+03</rscale>
<asrwt>0</asrwt>
<pdfrwt beam="1">  1       21 0.18881009E-02 0.12500000E+03</pdfrwt>
<pdfrwt beam="2">  1       21 0.48967522E-01 0.12500000E+03</pdfrwt>
<totfact> 0.53006864E+06</totfact>
</mgrwt>
</event>
<event>
 3      1 +1.7592000e+01 1.25000000e+02 7.54677100e-03 1.23506900e-01
       21 -1    0    0  502  501 +0.0000000000e+00 +0.0000000000e+00 +3.3707192031e+01 3.3707192031e+01 0.0000000000e+00 0.0000e+00 -1.0000e+00
       21 -1    0    0  501  502 -0.0000000000e+00 -0.0000000000e+00 -1.1588773092e+02 1.1588773092e+02 0.0000000000e+00 0.0000e+00 -1.0000e+00
       25  1    1    2    0    0 +0.0000000000e+00 +0.0000000000e+00 -8.2180538885e+01 1.4959492295e+02 1.2500000000e+02 0.0000e+00 0.0000e+00
<mgrwt>
<rscale>  0 0.12500000E+03</rscale>
<asrwt>0</asrwt>
<pdfrwt beam="1">  1       21 0.51857220E-02 0.12500000E+03</pdfrwt>
<pdfrwt beam="2">  1       21 0.17828881E-01 0.12500000E+03</pdfrwt>
<totfact> 0.70810123E+06</totfact>
</mgrwt>
</event>
<event>
 3      1 +1.7592000e+01 1.25000000e+02 7.54677100e-03 1.23506900e-01
       21 -1    0    0  502  501 +0.0000000000e+00 +0.0000000000e+00 +4.0272209163e+02 4.0272209163e+02 0.0000000000e+00 0.0000e+00 1.0000e+00
       21 -1    0    0  501  502 -0.0000000000e+00 -0.0000000000e+00 -9.6996168852e+00 9.6996168852e+00 0.0000000000e+00 0.0000e+00 1.0000e+00
       25  1    1    2    0    0 +0.0000000000e+00 +0.0000000000e+00 +3.9302247474e+02 4.1242170851e+02 1.2500000000e+02 0.0000e+00 0.0000e+00
<mgrwt>
<rscale>  0 0.12500000E+03</rscale>
<asrwt>0</asrwt>
<pdfrwt beam="1">  1       21 0.61957232E-01 0.12500000E+03</pdfrwt>
<pdfrwt beam="2">  1       21 0.14922491E-02 0.12500000E+03</pdfrwt>
<totfact> 0.47228206E+06</totfact>
</mgrwt>
</event>
<event>
 3      1 +1.7592000e+01 1.25000000e+02 7.54677100e-03 1.23506900e-01
       21 -1    0    0  502  501 +0.0000000000e+00 +0.0000000000e+00 +6.2438083120e+02 6.2438083120e+02 0.0000000000e+00 0.0000e+00 1.0000e+00
       21 -1    0    0  501  502 -0.0000000000e+00 -0.0000000000e+00 -6.2561978280e+00 6.2561978280e+00 0.0000000000e+00 0.0000e+00 1.0000e+00
       25  1    1    2    0    0 +0.0000000000e+00 +0.0000000000e+00 +6.1812463337e+02 6.3063702903e+02 1.2500000000e+02 0.0000e+00 0.0000e+00
<mgrwt>
<rscale>  0 0.12500000E+03</rscale>
<asrwt>0</asrwt>
<pdfrwt beam="1">  1       21 0.96058541E-01 0.12500000E+03</pdfrwt>
<pdfrwt beam="2">  1       21 0.96249246E-03 0.12500000E+03</pdfrwt>
<totfact> 0.35742779E+06</totfact>
</mgrwt>
</event>
<event>
 3      1 +1.7592000e+01 1.25000000e+02 7.54677100e-03 1.23506900e-01
       21 -1    0    0  502  501 +0.0000000000e+00 +0.0000000000e+00 +2.0174705270e+01 2.0174705270e+01 0.0000000000e+00 0.0000e+00 1.0000e+00
       21 -1    0    0  501  502 -0.0000000000e+00 -0.0000000000e+00 -1.9362116807e+02 1.9362116807e+02 0.0000000000e+00 0.0000e+00 1.0000e+00
       25  1    1    2    0    0 +0.0000000000e+00 +0.0000000000e+00 -1.7344646280e+02 2.1379587334e+02 1.2500000000e+02 0.0000e+00 0.0000e+00
<mgrwt>
<rscale>  0 0.12500000E+03</rscale>
<asrwt>0</asrwt>
<pdfrwt beam="1">  1       21 0.31038008E-02 0.12500000E+03</pdfrwt>
<pdfrwt beam="2">  1       21 0.29787873E-01 0.12500000E+03</pdfrwt>
<totfact> 0.63462366E+06</totfact>
</mgrwt>
</event>
<event>
 3      1 +1.7592000e+01 1.25000000e+02 7.54677100e-03 1.23506900e-01
       21 -1    0    0  502  501 +0.0000000000e+00 +0.0000000000e+00 +7.6721610956e+01 7.6721610956e+01 0.0000000000e+00 0.0000e+00 1.0000e+00
       21 -1    0    0  501  502 -0.0000000000e+00 -0.0000000000e+00 -5.0914598264e+01 5.0914598264e+01 0.0000000000e+00 0.0000e+00 1.0000e+00
       25  1    1    2    0    0 +0.0000000000e+00 +0.0000000000e+00 +2.5807012692e+01 1.2763620922e+02 1.2500000000e+02 0.0000e+00 0.0000e+00
<mgrwt>
<rscale>  0 0.12500000E+03</rscale>
<asrwt>0</asrwt>
<pdfrwt beam="1">  1       21 0.11803325E-01 0.12500000E+03</pdfrwt>
<pdfrwt beam="2">  1       21 0.78330151E-02 0.12500000E+03</pdfrwt>
<totfact> 0.73682763E+06</totfact>
</mgrwt>
</event>
<event>
 3      1 +1.7592000e+01 1.25000000e+02 7.54677100e-03 1.23506900e-01
       21 -1    0    0  502  501 +0.0000000000e+00 +0.0000000000e+00 +1.1772230854e+01 1.1772230854e+01 0.0000000000e+00 0.0000e+00 1.0000e+00
       21 -1    0    0  501  502 -0.0000000000e+00 -0.0000000000e+00 -3.3181901108e+02 3.3181901108e+02 0.0000000000e+00 0.0000e+00 1.0000e+00
       25  1    1    2    0    0 +0.0000000000e+00 +0.0000000000e+00 -3.2004678022e+02 3.4359124193e+02 1.2500000000e+02 0.0000e+00 0.0000e+00
<mgrwt>
<rscale>  0 0.12500000E+03</rscale>
<asrwt>0</asrwt>
<pdfrwt beam="1">  1       21 0.18111122E-02 0.12500000E+03</pdfrwt>
<pdfrwt beam="2">  1       21 0.51049086E-01 0.12500000E+03</pdfrwt>
<totfact> 0.52015243E+06</totfact>
</mgrwt>
</event>
<event>
 3      1 +1.7592000e+01 1.25000000e+02 7.54677100e-03 1.23506900e-01
       21 -1    0    0  502  501 +0.0000000000e+00 +0.0000000000e+00 +5.8154897948e+02 5.8154897948e+02 0.0000000000e+00 0.0000e+00 1.0000e+00
       21 -1    0    0  501  502 -0.0000000000e+00 -0.0000000000e+00 -6.7169750749e+00 6.7169750749e+00 0.0000000000e+00 0.0000e+00 1.0000e+00
       25  1    1    2    0    0 +0.0000000000e+00 +0.0000000000e+00 +5.7483200440e+02 5.8826595455e+02 1.2500000000e+02 0.0000e+00 0.0000e+00
<mgrwt>
<rscale>  0 0.12500000E+03</rscale>
<asrwt>0</asrwt>
<pdfrwt beam="1">  1       21 0.89469034E-01 0.12500000E+03</pdfrwt>
<pdfrwt beam="2">  1       21 0.10333812E-02 0.12500000E+03</pdfrwt>
<totfact> 0.37628733E+06</totfact>
</mgrwt>
</event>
<event>
 3      1 +1.7592000e+01 1.25000000e+02 7.54677100e-03 1.23506900e-01
       21 -1    0    0  502  501 +0.0000000000e+00 +0.0000000000e+00 +1.9879256179e+01 1.9879256179e+01 0.0000000000e+00 0.0000e+00 1.0000e+00
       21 -1    0    0  501  502 -0.0000000000e+00 -0.0000000000e+00 -1.9649880081e+02 1.9649880081e+02 0.0000000000e+00 0.0000e+00 1.0000e+00
       25  1    1    2    0    0 +0.0000000000e+00 +0.0000000000e+00 -1.7661954463e+02 2.1637805698e+02 1.2500000000e+02 0.0000e+00 0.0000e+00
<mgrwt>
<rscale>  0 0.12500000E+03</rscale>
<asrwt>0</asrwt>
<pdfrwt beam="1">  1       21 0.30583472E-02 0.12500000E+03</pdfrwt>
<pdfrwt beam="2">  1       21 0.30230584E-01 0.12500000E+03</pdfrwt>
<totfact> 0.63194676E+06</totfact>
</mgrwt>
</event>
<event>
 3      1 +1.7592000e+01 1.25000000e+02 7.54677100e-03 1.23506900e-01
       21 -1    0    0  502  501 +0.0000000000e+00 +0.0000000000e+00 +5.5683265872e+02 5.5683265872e+02 0.0000000000e+00 0.0000e+00 1.0000e+00
       21 -1    0    0  501  502 -0.0000000000e+00 -0.0000000000e+00 -7.0151237340e+00 7.0151237340e+00 0.0000000000e+00 0.0000e+00 1.0000e+00
       25  1    1    2    0    0 +0.0000000000e+00 +0.0000000000e+00 +5.4981753498e+02 5.6384778245e+02 1.2500000000e+02 0.0000e+00 0.0000e+00
<mgrwt>
<rscale>  0 0.12500000E+03</rscale>
<asrwt>0</asrwt>
<pdfrwt beam="1">  1       21 0.85666528E-01 0.12500000E+03</pdfrwt>
<pdfrwt beam="2">  1       21 0.10792502E-02 0.12500000E+03</pdfrwt>
<totfact> 0.38780343E+06</totfact>
</mgrwt>
</event>
<event>
 3      1 +1.7592000e+01 1.25000000e+02 7.54677100e-03 1.23506900e-01
       21 -1    0    0  502  501 +0.0000000000e+00 +0.0000000000e+00 +2.3745708753e+01 2.3745708753e+01 0.0000000000e+00 0.0000e+00 1.0000e+00
       21 -1    0    0  501  502 -0.0000000000e+00 -0.0000000000e+00 -1.6450340736e+02 1.6450340736e+02 0.0000000000e+00 0.0000e+00 1.0000e+00
       25  1    1    2    0    0 +0.0000000000e+00 +0.0000000000e+00 -1.4075769860e+02 1.8824911611e+02 1.2500000000e+02 0.0000e+00 0.0000e+00
<mgrwt>
<rscale>  0 0.12500000E+03</rscale>
<asrwt>0</asrwt>
<pdfrwt beam="1">  1       21 0.36531858E-02 0.12500000E+03</pdfrwt>
<pdfrwt beam="2">  1       21 0.25308218E-01 0.12500000E+03</pdfrwt>
<totfact> 0.66217588E+06</totfact>
</mgrwt>
</event>
<event>
 3      1 +1.7592000e+01 1.25000000e+02 7.54677100e-03 1.23506900e-01
       21 -1    0    0  502  501 +0.0000000000e+00 +0.0000000000e+00 +1.0007748005e+02 1.0007748005e+02 0.0000000000e+00 0.0000e+00 1.0000e+00
       21 -1    0    0  501  502 -0.0000000000e+00 -0.0000000000e+00 -3.9032257787e+01 3.9032257787e+01 0.0000000000e+00 0.0000e+00 1.0000e+00
       25  1    1    2    0    0 +0.0000000000e+00 +0.0000000000e+00 +6.1045222265e+01 1.3910973784e+02 1.2500000000e+02 0.0000e+00 0.0000e+00
<mgrwt>
<rscale>  0 0.12500000E+03</rscale>
<asrwt>0</asrwt>
<pdfrwt beam="1">  1       21 0.15396535E-01 0.12500000E+03</pdfrwt>
<pdfrwt beam="2">  1       21 0.60049628E-02 0.12500000E+03</pdfrwt>
<totfact> 0.72155744E+06</totfact>
</mgrwt>
</event>
<event>
 3      1 +1.7592000e+01 1.25000000e+02 7.54677100e-03 1.23506900e-01
       21 -1    0    0  502  501 +0.0000000000e+00 +0.0000000000e+00 +2.5584318221e+02 2.5584318221e+02 0.0000000000e+00 0.0000e+00 -1.0000e+00
       21 -1    0    0  501  502 -0.0000000000e+00 -0.0000000000e+00 -1.5268141860e+01 1.5268141860e+01 0.0000000000e+00 0.0000e+00 -1.0000e+00
       25  1    1    2    0    0 +0.0000000000e+00 +0.0000000000e+00 +2.4057504035e+02 2.7111132407e+02 1.2500000000e+02 0.0000e+00 0.0000e+00
<mgrwt>
<rscale>  0 0.12500000E+03</rscale>
<asrwt>0</asrwt>
<pdfrwt beam="1">  1       21 0.39360487E-01 0.12500000E+03</pdfrwt>
<pdfrwt beam="2">  1       21 0.23489451E-02 0.12500000E+03</pdfrwt>
<totfact> 0.57945583E+06</totfact>
</mgrwt>
</event>
<event>
 3      1 +1.7592000e+01 1.25000000e+02 7.54677100e-03 1.23506900e-01
       21 -1    0    0  502  501 +0.0000000000e+00 +0.0000000000e+00 +7.8968043288e+00 7.8968043288e+00 0.0000000000e+00 0.0000e+00 -1.0000e+00
       21 -1    0    0  501  502 -0.0000000000e+00 -0.0000000000e+00 -4.9466212374e+02 4.9466212374e+02 0.0000000000e+00 0.0000e+00 -1.0000e+00
       25  1    1    2    0    0 +0.0000000000e+00 +0.0000000000e+00 -4.8676531941e+02 5.0255892806e+02 1.2500000000e+02 0.0000e+00 0.0000e+00
<mgrwt>
<rscale>  0 0.12500000E+03</rscale>
<asrwt>0</asrwt>
<pdfrwt beam="1">  1       21 0.12148928E-02 0.12500000E+03</pdfrwt>
<pdfrwt beam="2">  1       21 0.76101876E-01 0.12500000E+03</pdfrwt>
<totfact> 0.41905629E+06</totfact>
</mgrwt>
</event>
<event>
 3      1 +1.7592000e+01 1.25000000e+02 7.54677100e-03 1.23506900e-01
       21 -1    0    0  502  501 +0.0000000000e+00 +0.0000000000e+00 +1.0255523706e+03 1.0255523706e+03 0.0000000000e+00 0.0000e+00 1.0000e+00
       21 -1    0    0  501  502 -0.0000000000e+00 -0.0000000000e+00 -3.8089229884e+00 3.8089229884e+00 0.0000000000e+00 0.0000e+00 1.0000e+00
       25  1    1    2    0    0 +0.0000000000e+00 +0.0000000000e+00 +1.0217434476e+03 1.0293612935e+03 1.2500000000e+02 0.0000e+00 0.0000e+00
<mgrwt>
<rscale>  0 0.12500000E+03</rscale>
<asrwt>0</asrwt>
<pdfrwt beam="1">  1       21 0.15777707E+00 0.12500000E+03</pdfrwt>
<pdfrwt beam="2">  1       21 0.58598897E-03 0.12500000E+03</pdfrwt>
<totfact> 0.22894448E+06</totfact>
</mgrwt>
</event>
<event>
 3      1 +1.7592000e+01 1.25000000e+02 7.54677100e-03 1.23506900e-01
       21 -1    0    0  502  501 +0.0000000000e+00 +0.0000000000e+00 +1.1546726474e+01 1.1546726474e+01 0.0000000000e+00 0.0000e+00 -1.0000e+00
       21 -1    0    0  501  502 -0.0000000000e+00 -0.0000000000e+00 -3.3829934473e+02 3.3829934473e+02 0.0000000000e+00 0.0000e+00 -1.0000e+00
       25  1    1    2    0    0 +0.0000000000e+00 +0.0000000000e+00 -3.2675261825e+02 3.4984607120e+02 1.2500000000e+02 0.0000e+00 0.0000e+00
<mgrwt>
<rscale>  0 0.12500000E+03</rscale>
<asrwt>0</asrwt>
<pdfrwt beam="1">  1       21 0.17764193E-02 0.12500000E+03</pdfrwt>
<pdfrwt beam="2">  1       21 0.52046059E-01 0.12500000E+03</pdfrwt>
<totfact> 0.51549799E+06</totfact>
</mgrwt>
</event>
<event>
 3      1 +1.7592000e+01 1.25000000e+02 7.54677100e-03 1.23506900e-01
       21 -1    0    0  502  501 +0.0000000000e+00 +0.0000000000e+00 +5.3170670710e+02 5.3170670710e+02 0.0000000000e+00 0.0000e+00 -1.0000e+00
       21 -1    0    0  501  502 -0.0000000000e+00 -0.0000000000e+00 -7.3466254005e+00 7.3466254005e+00 0.0000000000e+00 0.0000e+00 -1.0000e+00
       25  1    1    2    0    0 +0.0000000000e+00 +0.0000000000e+00 +5.2436008170e+02 5.3905333250e+02 1.2500000000e+02 0.0000e+00 0.0000e+00
<mgrwt>
<rscale>  0 0.12500000E+03</rscale>
<asrwt>0</asrwt>
<pdfrwt beam="1">  1       21 0.81801001E-01 0.12500000E+03</pdfrwt>
<pdfrwt beam="2">  1       21 0.11302505E-02 0.12500000E+03</pdfrwt>
<totfact> 0.40002353E+06</totfact>
</mgrwt>
</event>
<event>
 3      1 +1.7592000e+01 1.25000000e+02 7.54677100e-03 1.23506900e-01
       21 -1    0    0  502  501 +0.0000000000e+00 +0.0000000000e+00 +2.6414247198e+01 2.6414247198e+01 0.0000000000e+00 0.0000e+00 -1.0000e+00
       21 -1    0    0  501  502 -0.0000000000e+00 -0.0000000000e+00 -1.4788420698e+02 1.4788420698e+02 0.0000000000e+00 0.0000e+00 -1.0000e+00
       25  1    1    2    0    0 +0.0000000000e+00 +0.0000000000e+00 -1.2146995979e+02 1.7429845418e+02 1.2500000000e+02 0.0000e+00 0.0000e+00
<mgrwt>
<rscale>  0 0.12500000E+03</rscale>
<asrwt>0</asrwt>
<pdfrwt beam="1">  1       21 0.40637303E-02 0.12500000E+03</pdfrwt>
<pdfrwt beam="2">  1       21 0.22751417E-01 0.12500000E+03</pdfrwt>
<totfact> 0.67811696E+06</totfact>
</mgrwt>
</event>
<event>
 3      1 +1.7592000e+01 1.25000000e+02 7.54677100e-03 1.23506900e-01
       21 -1    0    0  502  501 +0.0000000000e+00 +0.0000000000e+00 +2.2735608633e+02 2.2735608633e+02 0.0000000000e+00 0.0000e+00 1.0000e+00
       21 -1    0    0  501  502 -0.0000000000e+00 -0.0000000000e+00 -1.7181198283e+01 1.7181198283e+01 0.0000000000e+00 0.0000e+00 1.0000e+00
       25  1    1    2    0    0 +0.0000000000e+00 +0.0000000000e+00 +2.1017488805e+02 2.4453728461e+02 1.2500000000e+02 0.0000e+00 0.0000e+00
<mgrwt>
<rscale>  0 0.12500000E+03</rscale>
<asrwt>0</asrwt>
<pdfrwt beam="1">  1       21 0.34977857E-01 0.12500000E+03</pdfrwt>
<pdfrwt beam="2">  1       21 0.26432614E-02 0.12500000E+03</pdfrwt>
<totfact> 0.60396343E+06</totfact>
</mgrwt>
</event>
<event>
 3      1 +1.7592000e+01 1.25000000e+02 7.54677100e-03 1.23506900e-01
       21 -1    0    0  502  501 +0.0000000000e+00 +0.0000000000e+00 +2.4294243273e+01 2.4294243273e+01 0.0000000000e+00 0.0000e+00 -1.0000e+00
       21 -1    0    0  501  502 -0.0000000000e+00 -0.0000000000e+00 -1.6078912013e+02 1.6078912013e+02 0.0000000000e+00 0.0000e+00 -1.0000e+00
       25  1    1    2    0    0 +0.0000000000e+00 +0.0000000000e+00 -1.3649487685e+02 1.8508336340e+02 1.2500000000e+02 0.0000e+00 0.0000e+00
<mgrwt>
<rscale>  0 0.12500000E+03</rscale>
<asrwt>0</asrwt>
<pdfrwt beam="1">  1       21 0.37375760E-02 0.12500000E+03</pdfrwt>
<pdfrwt beam="2">  1       21 0.24736787E-01 0.12500000E+03</pdfrwt>
<totfact> 0.66573120E+06</totfact>
</mgrwt>
</event>
<event>
 3      1 +1.7592000e+01 1.25000000e+02 7.54677100e-03 1.23506900e-01
       21 -1    0    0  502  501 +0.0000000000e+00 +0.0000000000e+00 +4.4366968951e+00 4.4366968951e+00 0.0000000000e+00 0.0000e+00 1.0000e+00
       21 -1    0    0  501  502 -0.0000000000e+00 -0.0000000000e+00 -8.8044103357e+02 8.8044103357e+02 0.0000000000e+00 0.0000e+00 1.0000e+00
       25  1    1    2    0    0 +0.0000000000e+00 +0.0000000000e+00 -8.7600433668e+02 8.8487773047e+02 1.2500000000e+02 0.0000e+00 0.0000e+00
<mgrwt>
<rscale>  0 0.12500000E+03</rscale>
<asrwt>0</asrwt>
<pdfrwt beam="1">  1       21 0.68256808E-03 0.12500000E+03</pdfrwt>
<pdfrwt beam="2">  1       21 0.13545260E+00 0.12500000E+03</pdfrwt>
<totfact> 0.26734907E+06</totfact>
</mgrwt>
</event>
<event>
 3      1 +1.7592000e+01 1.25000000e+02 7.54677100e-03 1.23506900e-01
       21 -1    0    0  502  501 +0.0000000000e+00 +0.0000000000e+00 +4.2227510318e+01 4.2227510318e+01 0.0000000000e+00 0.0000e+00 1.0000e+00
       21 -1    0    0  501  502 -0.0000000000e+00 -0.0000000000e+00 -9.2504861655e+01 9.2504861655e+01 0.0000000000e+00 0.0000e+00 1.0000e+00
       25  1    1    2    0    0 +0.0000000000e+00 +0.0000000000e+00 -5.0277351337e+01 1.3473237197e+02 1.2500000000e+02 0.0000e+00 0.0000e+00
<mgrwt>
<rscale>  0 0.12500000E+03</rscale>
<asrwt>0</asrwt>
<pdfrwt beam="1">  1       21 0.64965401E-02 0.12500000E+03</pdfrwt>
<pdfrwt beam="2">  1       21 0.14231517E-01 0.12500000E+03</pdfrwt>
<totfact> 0.72731927E+06</totfact>
</mgrwt>
</event>
<event>
 3      1 +1.7592000e+01 1.25000000e+02 7.54677100e-03 1.23506900e-01
       21 -1    0    0  502  501 +0.0000000000e+00 +0.0000000000e+00 +1.1269599382e+01 1.1269599382e+01 0.0000000000e+00 0.0000e+00 1.0000e+00
       21 -1    0    0  501  502 -0.0000000000e+00 -0.0000000000e+00 -3.4661835505e+02 3.4661835505e+02 0.0000000000e+00 0.0000e+00 1.0000e+00
       25  1    1    2    0    0 +0.0000000000e+00 +0.0000000000e+00 -3.3534875567e+02 3.5788795443e+02 1.2500000000e+02 0.0000e+00 0.0000e+00
<mgrwt>
<rscale>  0 0.12500000E+03</rscale>
<asrwt>0</asrwt>
<pdfrwt beam="1">  1       21 0.17337845E-02 0.12500000E+03</pdfrwt>
<pdfrwt beam="2">  1       21 0.53325902E-01 0.12500000E+03</pdfrwt>
<totfact> 0.50961108E+06</totfact>
</mgrwt>
</event>
<event>
 3      1 +1.7592000e+01 1.25000000e+02 7.54677100e-03 1.23506900e-01
       21 -1    0    0  502  501 +0.0000000000e+00 +0.0000000000e+00 +7.5575193119e+01 7.5575193119e+01 0.0000000000e+00 0.0000e+00 1.0000e+00
       21 -1    0    0  501  502 -0.0000000000e+00 -0.0000000000e+00 -5.1686933752e+01 5.1686933752e+01 0.0000000000e+00 0.0000e+00 1.0000e+00
       25  1    1    2    0    0 +0.0000000000e+00 +0.0000000000e+00 +2.3888259368e+01 1.2726212687e+02 1.2500000000e+02 0.0000e+00 0.0000e+00
<mgrwt>
<rscale>  0 0.12500000E+03</rscale>
<asrwt>0</asrwt>
<pdfrwt beam="1">  1       21 0.11626953E-01 0.12500000E+03</pdfrwt>
<pdfrwt beam="2">  1       21 0.79518360E-02 0.12500000E+03</pdfrwt>
<totfact> 0.73733495E+06</totfact>
</mgrwt>
</event>
<event>
 3      1 +1.7592000e+01 1.25000000e+02 7.54677100e-03 1.23506900e-01
       21 -1    0    0  502  501 +0.0000000000e+00 +0.0000000000e+00 +8.9125831389e+01 8.9125831389e+01 0.0000000000e+00 0.0000e+00 1.0000e+00
       21 -1    0    0  501  502 -0.0000000000e+00 -0.0000000000e+00 -4.3828483158e+01 4.3828483158e+01 0.0000000000e+00 0.0000e+00 1.0000e+00
       25  1    1    2    0    0 +0.0000000000e+00 +0.0000000000e+00 +4.5297348231e+01 1.3295431455e+02 1.2500000000e+02 0.0000e+00 0.0000e+00
<mgrwt>
<rscale>  0 0.12500000E+03</rscale>
<asrwt>0</asrwt>
<pdfrwt beam="1">  1       21 0.13711666E-01 0.12500000E+03</pdfrwt>
<pdfrwt beam="2">  1       21 0.67428436E-02 0.12500000E+03</pdfrwt>
<totfact> 0.72968499E+06</totfact>
</mgrwt>
</event>
<event>
 3      1 +1.7592000e+01 1.25000000e+02 7.54677100e-03 1.23506900e-01
       21 -1    0    0  502  501 +0.0000000000e+00 +0.0000000000e+00 +4.8836302135e+02 4.8836302135e+02 0.0000000000e+00 0.0000e+00 -1.0000e+00
       21 -1    0    0  501  502 -0.0000000000e+00 -0.0000000000e+00 -7.9986604825e+00 7.9986604825e+00 0.0000000000e+00 0.0000e+00 -1.0000e+00
       25  1    1    2    0    0 +0.0000000000e+00 +0.0000000000e+00 +4.8036436087e+02 4.9636168184e+02 1.2500000000e+02 0.0000e+00 0.0000e+00
<mgrwt>
<rscale>  0 0.12500000E+03</rscale>
<asrwt>0</asrwt>
<pdfrwt beam="1">  1       21 0.75132749E-01 0.12500000E+03</pdfrwt>
<pdfrwt beam="2">  1       21 0.12305635E-02 0.12500000E+03</pdfrwt>
<totfact> 0.42242083E+06</totfact>
</mgrwt>
</event>
<event>
 3      1 +1.7592000e+01 1.25000000e+02 7.54677100e-03 1.23506900e-01
       21 -1    0    0  502  501 +0.0000000000e+00 +0.0000000000e+00 +7.3998865941e+01 7.3998865941e+01 0.0000000000e+00 0.0000e+00 -1.0000e+00
       21 -1    0    0  501  502 -0.0000000000e+00 -0.0000000000e+00 -5.2787971144e+01 5.2787971144e+01 0.0000000000e+00 0.0000e+00 -1.0000e+00
       25  1    1    2    0    0 +0.0000000000e+00 +0.0000000000e+00 +2.1210894797e+01 1.2678683709e+02 1.2500000000e+02 0.0000e+00 0.0000e+00
<mgrwt>
<rscale>  0 0.12500000E+03</rscale>
<asrwt>0</asrwt>
<pdfrwt beam="1">  1       21 0.11384441E-01 0.12500000E+03</pdfrwt>
<pdfrwt beam="2">  1       21 0.81212263E-02 0.12500000E+03</pdfrwt>
<totfact> 0.73798184E+06</totfact>
</mgrwt>
</event>
<event>
 3      1 +1.7592000e+01 1.25000000e+02 7.54677100e-03 1.23506900e-01
       21 -1    0    0  502  501 +0.0000000000e+00 +0.0000000000e+00 +8.4329181240e+00 8.4329181240e+00 0.0000000000e+00 0.0000e+00 -1.0000e+00
       21 -1    0    0  501  502 -0.0000000000e+00 -0.0000000000e+00 -4.6321450565e+02 4.6321450565e+02 0.0000000000e+00 0.0000e+00 -1.0000e+00
       25  1    1    2    0    0 +0.0000000000e+00 +0.0000000000e+00 -4.5478158753e+02 4.7164742377e+02 1.2500000000e+02 0.0000e+00 0.0000e+00
<mgrwt>
<rscale>  0 0.12500000E+03</rscale>
<asrwt>0</asrwt>
<pdfrwt beam="1">  1       21 0.12973719E-02 0.12500000E+03</pdfrwt>
<pdfrwt beam="2">  1       21 0.71263777E-01 0.12500000E+03</pdfrwt>
<totfact> 0.43624642E+06</totfact>
</mgrwt>
</event>
<event>
 3      1 +1.7592000e+01 1.25000000e+02 7.54677100e-03 1.23506900e-01
       21 -1    0    0  502  501 +0.0000000000e+00 +0.0000000000e+00 +8.6575771751e+02 8.6575771751e+02 0.0000000000e+00 0.0000e+00 -1.0000e+00
       21 -1    0    0  501  502 -0.0000000000e+00 -0.0000000000e+00 -4.5119436085e+00 4.5119436085e+00 0.0000000000e+00 0.0000e+00 -1.0000e+00
       25  1    1    2    0    0 +0.0000000000e+00 +0.0000000000e+00 +8.6124577390e+02 8.7026966112e+02 1.2500000000e+02 0.0000e+00 0.0000e+00
<mgrwt>
<rscale>  0 0.12500000E+03</rscale>
<asrwt>0</asrwt>
<pdfrwt beam="1">  1       21 0.13319336E+00 0.12500000E+03</pdfrwt>
<pdfrwt beam="2">  1       21 0.69414586E-03 0.12500000E+03</pdfrwt>
<totfact> 0.27162373E+06</totfact>
</mgrwt>
</event>
<event>
 3      1 +1.7592000e+01 1.25000000e+02 7.54677100e-03 1.23506900e-01
       21 -1    0    0  502  501 +0.0000000000e+00 +0.0000000000e+00 +5.9628258571e+01 5.9628258571e+01 0.0000000000e+00 0.0000e+00 -1.0000e+00
       21 -1    0    0  501  502 -0.0000000000e+00 -0.0000000000e+00 -6.5510046639e+01 6.5510046639e+01 0.0000000000e+00 0.0000e+00 -1.0000e+00
       25  1    1    2    0    0 +0.0000000000e+00 +0.0000000000e+00 -5.8817880677e+00 1.2513830521e+02 1.2500000000e+02 0.0000e+00 0.0000e+00
<mgrwt>
<rscale>  0 0.12500000E+03</rscale>
<asrwt>0</asrwt>
<pdfrwt beam="1">  1       21 0.91735782E-02 0.12500000E+03</pdfrwt>
<pdfrwt beam="2">  1       21 0.10078469E-01 0.12500000E+03</pdfrwt>
<totfact> 0.74024902E+06</totfact>
</mgrwt>
</event>
<event>
 3      1 +1.7592000e+01 1.25000000e+02 7.54677100e-03 1.23506900e-01
       21 -1    0    0  502  501 +0.0000000000e+00 +0.0000000000e+00 +1.0165909196e+03 1.0165909196e+03 0.0000000000e+00 0.0000e+00 -1.0000e+00
       21 -1    0    0  501  502 -0.0000000000e+00 -0.0000000000e+00 -3.8424994014e+00 3.8424994014e+00 0.0000000000e+00 0.0000e+00 -1.0000e+00
       25  1    1    2    0    0 +0.0000000000e+00 +0.0000000000e+00 +1.0127484202e+03 1.0204334190e+03 1.2500000000e+02 0.0000e+00 0.0000e+00
<mgrwt>
<rscale>  0 0.12500000E+03</rscale>
<asrwt>0</asrwt>
<pdfrwt beam="1">  1       21 0.15639839E+00 0.12500000E+03</pdfrwt>
<pdfrwt beam="2">  1       21 0.59115457E-03 0.12500000E+03</pdfrwt>
<totfact> 0.23112816E+06</totfact>
</mgrwt>
</event>
<event>
 3      1 +1.7592000e+01 1.25000000e+02 7.54677100e-03 1.23506900e-01
       21 -1    0    0  502  501 +0.0000000000e+00 +0.0000000000e+00 +2.2865018120e+02 2.2865018120e+02 0.0000000000e+00 0.0000e+00 1.0000e+00
       21 -1    0    0  501  502 -0.0000000000e+00 -0.0000000000e+00 -1.7083957596e+01 1.7083957596e+01 0.0000000000e+00 0.0000e+00 1.0000e+00
       25  1    1    2    0    0 +0.0000000000e+00 +0.0000000000e+00 +2.1156622361e+02 2.4573413880e+02 1.2500000000e+02 0.0000e+00 0.0000e+00
<mgrwt>
<rscale>  0 0.12500000E+03</rscale>
<asrwt>0</asrwt>
<pdfrwt beam="1">  1       21 0.35176949E-01 0.12500000E+03</pdfrwt>
<pdfrwt beam="2">  1       21 0.26283013E-02 0.12500000E+03</pdfrwt>
<totfact> 0.60282156E+06</totfact>
</mgrwt>
</event>
<event>
 3      1 +1.7592000e+01 1.25000000e+02 7.54677100e-03 1.23506900e-01
       21 -1    0    0  502  501 +0.0000000000e+00 +0.0000000000e+00 +1.4241494092e+02 1.4241494092e+02 0.0000000000e+00 0.0000e+00 1.0000e+00
       21 -1    0    0  501  502 -0.0000000000e+00 -0.0000000000e+00 -2.7428653025e+01 2.7428653025e+01 0.0000000000e+00 0.0000e+00 1.0000e+00
       25  1    1    2    0    0 +0.0000000000e+00 +0.0000000000e+00 +1.1498628789e+02 1.6984359394e+02 1.2500000000e+02 0.0000e+00 0.0000e+00
<mgrwt>
<rscale>  0 0.12500000E+03</rscale>
<asrwt>0</asrwt>
<pdfrwt beam="1">  1       21 0.21909991E-01 0.12500000E+03</pdfrwt>
<pdfrwt beam="2">  1       21 0.42197929E-02 0.12500000E+03</pdfrwt>
<totfact> 0.68336181E+06</totfact>
</mgrwt>
</event>
<event>
 3      1 +1.7592000e+01 1.25000000e+02 7.54677100e-03 1.23506900e-01
       21 -1    0    0  502  501 +0.0000000000e+00 +0.0000000000e+00 +6.4764667214e+01 6.4764667214e+01 0.0000000000e+00 0.0000e+00 1.0000e+00
       21 -1    0    0  501  502 -0.0000000000e+00 -0.0000000000e+00 -6.0314522842e+01 6.0314522842e+01 0.0000000000e+00 0.0000e+00 1.0000e+00
       25  1    1    2    0    0 +0.0000000000e+00 +0.0000000000e+00 +4.4501443720e+00 1.2507919006e+02 1.2500000000e+02 0.0000e+00 0.0000e+00
<mgrwt>
<rscale>  0 0.12500000E+03</rscale>
<asrwt>0</asrwt>
<pdfrwt beam="1">  1       21 0.99637950E-02 0.12500000E+03</pdfrwt>
<pdfrwt beam="2">  1       21 0.92791573E-02 0.12500000E+03</pdfrwt>
<totfact> 0.74032886E+06</totfact>
</mgrwt>
</event>
<event>
 3      1 +1.7592000e+01 1.25000000e+02 7.54677100e-03 1.23506900e-01
       21 -1    0    0  502  501 +0.0000000000e+00 +0.0000000000e+00 +4.0921313664e+01 4.0921313664e+01 0.0000000000e+00 0.0000e+00 1.0000e+00
       21 -1    0    0  501  502 -0.0000000000e+00 -0.0000000000e+00 -9.5457590439e+01 9.5457590439e+01 0.0000000000e+00 0.0000e+00 1.0000e+00
       25  1    1    2    0    0 +0.0000000000e+00 +0.0000000000e+00 -5.4536276775e+01 1.3637890410e+02 1.2500000000e+02 0.0000e+00 0.0000e+00
<mgrwt>
<rscale>  0 0.12500000E+03</rscale>
<asrwt>0</asrwt>
<pdfrwt beam="1">  1       21 0.62955868E-02 0.12500000E+03</pdfrwt>
<pdfrwt beam="2">  1       21 0.14685783E-01 0.12500000E+03</pdfrwt>
<totfact> 0.72514407E+06</totfact>
</mgrwt>
</event>
<event>
 3      1 +1.7592000e+01 1.25000000e+02 7.54677100e-03 1.23506900e-01
       21 -1    0    0  502  501 +0.0000000000e+00 +0.0000000000e+00 +8.1710532350e+02 8.1710532350e+02 0.0000000000e+00 0.0000e+00 1.0000e+00
       21 -1    0    0  501  502 -0.0000000000e+00 -0.0000000000e+00 -4.7805954601e+00 4.7805954601e+00 0.0000000000e+00 0.0000e+00 1.0000e+00
       25  1    1    2    0    0 +0.0000000000e+00 +0.0000000000e+00 +8.1232472804e+02 8.2188591896e+02 1.2500000000e+02 0.0000e+00 0.0000e+00
<mgrwt>
<rscale>  0 0.12500000E+03</rscale>
<asrwt>0</asrwt>
<pdfrwt beam="1">  1       21 0.12570840E+00 0.12500000E+03</pdfrwt>
<pdfrwt beam="2">  1       21 0.73547687E-03 0.12500000E+03</pdfrwt>
<totfact> 0.28650432E+06</totfact>
</mgrwt>
</event>
<event>
 3      1 +1.7592000e+01 1.25000000e+02 7.54677100e-03 1.23506900e-01
       21 -1    0    0  502  501 +0.0000000000e+00 +0.0000000000e+00 +2.5864572239e+02 2.5864572239e+02 0.0000000000e+00 0.0000e+00 1.0000e+00
       21 -1    0    0  501  502 -0.0000000000e+00 -0.0000000000e+00 -1.5102704827e+01 1.5102704827e+01 0.0000000000e+00 0.0000e+00 1.0000e+00
       25  1    1    2    0    0 +0.0000000000e+00 +0.0000000000e+00 +2.4354301756e+02 2.7374842721e+02 1.2500000000e+02 0.0000e+00 0.0000e+00
<mgrwt>
<rscale>  0 0.12500000E+03</rscale>
<asrwt>0</asrwt>
<pdfrwt beam="1">  1       21 0.39791646E-01 0.12500000E+03</pdfrwt>
<pdfrwt beam="2">  1       21 0.23234932E-02 0.12500000E+03</pdfrwt>
<totfact> 0.57710866E+06</totfact>
</mgrwt>
</event>
<event>
 3      1 +1.7592000e+01 1.25000000e+02 7.54677100e-03 1.23506900e-01
       21 -1    0    0  502  501 +0.0000000000e+00 +0.0000000000e+00 +3.8579903361e+01 3.8579903361e+01 0.0000000000e+00 0.0000e+00 -1.0000e+00
       21 -1    0    0  501  502 -0.0000000000e+00 -0.0000000000e+00 -1.0125090163e+02 1.0125090163e+02 0.0000000000e+00 0.0000e+00 -1.0000e+00
       25  1    1    2    0    0 +0.0000000000e+00 +0.0000000000e+00 -6.2670998265e+01 1.3983080499e+02 1.2500000000e+02 0.0000e+00 0.0000e+00
<mgrwt>
<rscale>  0 0.12500000E+03</rscale>
<asrwt>0</asrwt>
<pdfrwt beam="1">  1       21 0.59353698E-02 0.12500000E+03</pdfrwt>
<pdfrwt beam="2">  1       21 0.15577062E-01 0.12500000E+03</pdfrwt>
<totfact> 0.72061404E+06</totfact>
</mgrwt>
</event>
<event>
 3      1 +1.7592000e+01 1.25000000e+02 7.54677100e-03 1.23506900e-01
       21 -1    0    0  502  501 +0.0000000000e+00 +0.0000000000e+00 +1.6175424181e+01 1.6175424181e+01 0.0000000000e+00 0.0000e+00 -1.0000e+00
       21 -1    0    0  501  502 -0.0000000000e+00 -0.0000000000e+00 -2.4149289418e+02 2.4149289418e+02 0.0000000000e+00 0.0000e+00 -1.0000e+00
       25  1    1    2    0    0 +0.0000000000e+00 +0.0000000000e+00 -2.2531746999e+02 2.5766831836e+02 1.2500000000e+02 0.0000e+00 0.0000e+00
<mgrwt>
<rscale>  0 0.12500000E+03</rscale>
<asrwt>0</asrwt>
<pdfrwt beam="1">  1       21 0.24885269E-02 0.12500000E+03</pdfrwt>
<pdfrwt beam="2">  1       21 0.37152751E-01 0.12500000E+03</pdfrwt>
<totfact> 0.59163647E+06</totfact>
</mgrwt>
</event>
<event>
 3      1 +1.7592000e+01 1.25000000e+02 7.54677100e-03 1.23506900e-01
       21 -1    0    0  502  501 +0.0000000000e+00 +0.0000000000e+00 +3.5521138021e+01 3.5521138021e+01 0.0000000000e+00 0.0000e+00 -1.0000e+00
       21 -1    0    0  501  502 -0.0000000000e+00 -0.0000000000e+00 -1.0996973120e+02 1.0996973120e+02 0.0000000000e+00 0.0000e+00 -1.0000e+00
       25  1    1    2    0    0 +0.0000000000e+00 +0.0000000000e+00 -7.4448593178e+01 1.4549086922e+02 1.2500000000e+02 0.0000e+00 0.0000e+00
<mgrwt>
<rscale>  0 0.12500000E+03</rscale>
<asrwt>0</asrwt>
<pdfrwt beam="1">  1       21 0.54647905E-02 0.12500000E+03</pdfrwt>
<pdfrwt beam="2">  1       21 0.16918420E-01 0.12500000E+03</pdfrwt>
<totfact> 0.71330339E+06</totfact>
</mgrwt>
</event>
<event>
 3      1 +1.7592000e+01 1.25000000e+02 7.54677100e-03 1.23506900e-01
       21 -1    0    0  502  501 +0.0000000000e+00 +0.0000000000e+00 +5.2111970306e+02 5.2111970306e+02 0.0000000000e+00 0.0000e+00 1.0000e+00
       21 -1    0    0  501  502 -0.0000000000e+00 -0.0000000000e+00 -7.4958785420e+00 7.4958785420e+00 0.0000000000e+00 0.0000e+00 1.0000e+00
       25  1    1    2    0    0 +0.0000000000e+00 +0.0000000000e+00 +5.1362382452e+02 5.2861558161e+02 1.2500000000e+02 0.0000e+00 0.0000e+00
<mgrwt>
<rscale>  0 0.12500000E+03</rscale>
<asrwt>0</asrwt>
<pdfrwt beam="1">  1       21 0.80172234E-01 0.12500000E+03</pdfrwt>
<pdfrwt beam="2">  1       21 0.11532125E-02 0.12500000E+03</pdfrwt>
<totfact> 0.40533531E+06</totfact>
</mgrwt>
</event>
<event>
 3      1 +1.7592000e+01 1.25000000e+02 7.54677100e-03 1.23506900e-01
       21 -1    0    0  502  501 +0.0000000000e+00 +0.0000000000e+00 +1.9215950647e+02 1.9215950647e+02 0.0000000000e+00 0.0000e+00 -1.0000e+00
       21 -1    0    0  501  502 -0.0000000000e+00 -0.0000000000e+00 -2.0328164199e+01 2.0328164199e+01 0.0000000000e+00 0.0000e+00 -1.0000e+00
       25  1    1    2    0    0 +0.0000000000e+00 +0.0000000000e+00 +1.7183134227e+02 2.1248767067e+02 1.2500000000e+02 0.0000e+00 0.0000e+00
<mgrwt>
<rscale>  0 0.12500000E+03</rscale>
<asrwt>0</asrwt>
<pdfrwt beam="1">  1       21 0.29563000E-01 0.12500000E+03</pdfrwt>
<pdfrwt beam="2">  1       21 0.31274100E-02 0.12500000E+03</pdfrwt>
<totfact> 0.63598752E+06</totfact>
</mgrwt>
</event>
<event>
 3      1 +1.7592000e+01 1.25000000e+02 7.54677100e-03 1.23506900e-01
       21 -1    0    0  502  501 +0.0000000000e+00 +0.0000000000e+00 +3.1741111226e+01 3.1741111226e+01 0.0000000000e+00 0.0000e+00 1.0000e+00
       21 -1    0    0  501  502 -0.0000000000e+00 -0.0000000000e+00 -1.2306594978e+02 1.2306594978e+02 0.0000000000e+00 0.0000e+00 1.0000e+00
       25  1    1    2    0    0 +0.0000000000e+00 +0.0000000000e+00 -9.1324838551e+01 1.5480706100e+02 1.2500000000e+02 0.0000e+00 0.0000e+00
<mgrwt>
<rscale>  0 0.12500000E+03</rscale>
<asrwt>0</asrwt>
<pdfrwt beam="1">  1       21 0.48832479E-02 0.12500000E+03</pdfrwt>
<pdfrwt beam="2">  1       21 0.18933223E-01 0.12500000E+03</pdfrwt>
<totfact> 0.70159647E+06</totfact>
</mgrwt>
</event>
<event>
 3      1 +1.7592000e+01 1.25000000e+02 7.54677100e-03 1.23506900e-01
       21 -1    0    0  502  501 +0.0000000000e+00 +0.0000000000e+00 +1.0501055011e+02 1.0501055011e+02 0.0000000000e+00 0.0000e+00 1.0000e+00
       21 -1    0    0  501  502 -0.0000000000e+00 -0.0000000000e+00 -3.7198643335e+01 3.7198643335e+01 0.0000000000e+00 0.0000e+00 1.0000e+00
       25  1    1    2    0    0 +0.0000000000e+00 +0.0000000000e+00 +6.7811906775e+01 1.4220919345e+02 1.2500000000e+02 0.0000e+00 0.0000e+00
<mgrwt>
<rscale>  0 0.12500000E+03</rscale>
<asrwt>0</asrwt>
<pdfrwt beam="1">  1       21 0.16155469E-01 0.12500000E+03</pdfrwt>
<pdfrwt beam="2">  1       21 0.57228683E-02 0.12500000E+03</pdfrwt>
<totfact> 0.71752199E+06</totfact>
</mgrwt>
</event>
<event>
 3      1 +1.7592000e+01 1.25000000e+02 7.54677100e-03 1.23506900e-01
       21 -1    0    0  502  501 +0.0000000000e+00 +0.0000000000e+00 +4.9530727001e+02 4.9530727001e+02 0.0000000000e+00 0.0000e+00 -1.0000e+00
       21 -1    0    0  501  502 -0.0000000000e+00 -0.0000000000e+00 -7.8865186047e+00 7.8865186047e+00 0.0000000000e+00 0.0000e+00 -1.0000e+00
       25  1    1    2    0    0 +0.0000000000e+00 +0.0000000000e+00 +4.8742075141e+02 5.0319378862e+02 1.2500000000e+02 0.0000e+00 0.0000e+00
<mgrwt>
<rscale>  0 0.12500000E+03</rscale>
<asrwt>0</asrwt>
<pdfrwt beam="1">  1       21 0.76201094E-01 0.12500000E+03</pdfrwt>
<pdfrwt beam="2">  1       21 0.12133109E-02 0.12500000E+03</pdfrwt>
<totfact> 0.41871400E+06</totfact>
</mgrwt>
</event>
<event>
 3      1 +1.7592000e+01 1.25000000e+02 7.54677100e-03 1.23506900e-01
       21 -1    0    0  502  501 +0.0000000000e+00 +0.0000000000e+00 +8.3091709807e+01 8.3091709807e+01 0.0000000000e+00 0.0000e+00 -1.0000e+00
       21 -1    0    0  501  502 -0.0000000000e+00 -0.0000000000e+00 -4.7011308457e+01 4.7011308457e+01 0.0000000000e+00 0.0000e+00 -1.0000e+00
       25  1    1    2    0    0 +0.0000000000e+00 +0.0000000000e+00 +3.6080401350e+01 1.3010301826e+02 1.2500000000e+02 0.0000e+00 0.0000e+00
<mgrwt>
<rscale>  0 0.12500000E+03</rscale>
<asrwt>0</asrwt>
<pdfrwt beam="1">  1       21 0.12783340E-01 0.12500000E+03</pdfrwt>
<pdfrwt beam="2">  1       21 0.72325090E-02 0.12500000E+03</pdfrwt>
<totfact> 0.73351150E+06</totfact>
</mgrwt>
</event>
<event>
 3      1 +1.7592000e+01 1.25000000e+02 7.54677100e-03 1.23506900e-01
       21 -1    0    0  502  501 +0.0000000000e+00 +0.0000000000e+00 +1.3808188020e+01 1.3808188020e+01 0.0000000000e+00 0.0000e+00 -1.0000e+00
       21 -1    0    0  501  502 -0.0000000000e+00 -0.0000000000e+00 -2.8289374350e+02 2.8289374350e+02 0.0000000000e+00 0.0000e+00 -1.0000e+00
       25  1    1    2    0    0 +0.0000000000e+00 +0.0000000000e+00 -2.6908555548e+02 2.9670193152e+02 1.2500000000e+02 0.0000e+00 0.0000e+00
<mgrwt>
<rscale>  0 0.12500000E+03</rscale>
<asrwt>0</asrwt>
<pdfrwt beam="1">  1       21 0.21243364E-02 0.12500000E+03</pdfrwt>
<pdfrwt beam="2">  1       21 0.43522119E-01 0.12500000E+03</pdfrwt>
<totfact> 0.55731372E+06</totfact>
</mgrwt>
</event>
<event>
 3      1 +1.7592000e+01 1.25000000e+02 7.54677100e-03 1.23506900e-01
       21 -1    0    0  502  501 +0.0000000000e+00 +0.0000000000e+00 +1.3099377899e+02 1.3099377899e+02 0.0000000000e+00 0.0000e+00 -1.0000e+00
       21 -1    0    0  501  502 -0.0000000000e+00 -0.0000000000e+00 -2.9820118406e+01 2.9820118406e+01 0.0000000000e+00 0.0000e+00 -1.0000e+00
       25  1    1    2    0    0 +0.0000000000e+00 +0.0000000000e+00 +1.0117366058e+02 1.6081389740e+02 1.2500000000e+02 0.0000e+00 0.0000e+00
<mgrwt>
<rscale>  0 0.12500000E+03</rscale>
<asrwt>0</asrwt>
<pdfrwt beam="1">  1       21 0.20152889E-01 0.12500000E+03</pdfrwt>
<pdfrwt beam="2">  1       21 0.45877106E-02 0.12500000E+03</pdfrwt>
<totfact> 0.69420183E+06</totfact>
</mgrwt>
</event>
<event>
 3      1 +1.7592000e+01 1.25000000e+02 7.54677100e-03 1.23506900e-01
       21 -1    0    0  502  501 +0.0000000000e+00 +0.0000000000e+00 +5.6049516100e+01 5.6049516100e+01 0.0000000000e+00 0.0000e+00 1.0000e+00
       21 -1    0    0  501  502 -0.0000000000e+00 -0.0000000000e+00 -6.9692840756e+01 6.9692840756e+01 0.0000000000e+00 0.0000e+00 1.0000e+00
       25  1    1    2    0    0 +0.0000000000e+00 +0.0000000000e+00 -1.3643324656e+01 1.2574235686e+02 1.2500000000e+02 0.0000e+00 0.0000e+00
<mgrwt>
<rscale>  0 0.12500000E+03</rscale>
<asrwt>0</asrwt>
<pdfrwt beam="1">  1       21 0.86230025E-02 0.12500000E+03</pdfrwt>
<pdfrwt beam="2">  1       21 0.10721975E-01 0.12500000E+03</pdfrwt>
<totfact> 0.73941660E+06</totfact>
</mgrwt>
</event>
<event>
 3      1 +1.7592000e+01 1.25000000e+02 7.54677100e-03 1.23506900e-01
       21 -1    0    0  502  501 +0.0000000000e+00 +0.0000000000e+00 +3.9081850014e+01 3.9081850014e+01 0.0000000000e+00 0.0000e+00 1.0000e+00
       21 -1    0    0  501  502 -0.0000000000e+00 -0.0000000000e+00 -9.9950488491e+01 9.9950488491e+01 0.0000000000e+00 0.0000e+00 1.0000e+00
       25  1    1    2    0    0 +0.0000000000e+00 +0.0000000000e+00 -6.0868638477e+01 1.3903233850e+02 1.2500000000e+02 0.0000e+00 0.0000e+00
<mgrwt>
<rscale>  0 0.12500000E+03</rscale>
<asrwt>0</asrwt>
<pdfrwt beam="1">  1       21 0.60125924E-02 0.12500000E+03</pdfrwt>
<pdfrwt beam="2">  1       21 0.15376998E-01 0.12500000E+03</pdfrwt>
<totfact> 0.72165887E+06</totfact>
</mgrwt>
</event>
<event>
 3      1 +1.7592000e+01 1.25000000e+02 7.54677100e-03 1.23506900e-01
       21 -1    0    0  502  501 +0.0000000000e+00 +0.0000000000e+00 +4.6862699539e+02 4.6862699539e+02 0.0000000000e+00 0.0000e+00 -1.0000e+00
       21 -1    0    0  501  502 -0.0000000000e+00 -0.0000000000e+00 -8.3355206560e+00 8.3355206560e+00 0.0000000000e+00 0.0000e+00 -1.0000e+00
       25  1    1    2    0    0 +0.0000000000e+00 +0.0000000000e+00 +4.6029147473e+02 4.7696251604e+02 1.2500000000e+02 0.0000e+00 0.0000e+00
<mgrwt>
<rscale>  0 0.12500000E+03</rscale>
<asrwt>0</asrwt>
<pdfrwt beam="1">  1       21 0.72096441E-01 0.12500000E+03</pdfrwt>
<pdfrwt beam="2">  1       21 0.12823882E-02 0.12500000E+03</pdfrwt>
<totfact> 0.43321656E+06</totfact>
</mgrwt>
</event>
<event>
 3      1 +1.7592000e+01 1.25000000e+02 7.54677100e-03 1.23506900e-01
       21 -1    0    0  502  501 +0.0000000000e+00 +0.0000000000e+00 +1.7699394314e+00 1.7699394314e+00 0.0000000000e+00 0.0000e+00 1.0000e+00
       21 -1    0    0  501  502 -0.0000000000e+00 -0.0000000000e+00 -2.2069964264e+03 2.2069964264e+03 0.0000000000e+00 0.0000e+00 1.0000e+00
       25  1    1    2    0    0 +0.0000000000e+00 +0.0000000000e+00 -2.2052264870e+03 2.2087663658e+03 1.2500000000e+02 0.0000e+00 0.0000e+00
<mgrwt>
<rscale>  0 0.12500000E+03</rscale>
<asrwt>0</asrwt>
<pdfrwt beam="1">  1       21 0.27229749E-03 0.12500000E+03</pdfrwt>
<pdfrwt beam="2">  1       21 0.33953901E+00 0.12500000E+03</pdfrwt>
<totfact> 0.60857099E+05</totfact>
</mgrwt>
</event>
<event>
 3      1 +1.7592000e+01 1.25000000e+02 7.54677100e-03 1.23506900e-01
       21 -1    0    0  502  501 +0.0000000000e+00 +0.0000000000e+00 +1.5322036488e+01 1.5322036488e+01 0.0000000000e+00 0.0000e+00 1.0000e+00
       21 -1    0    0  501  502 -0.0000000000e+00 -0.0000000000e+00 -2.5494326443e+02 2.5494326443e+02 0.0000000000e+00 0.0000e+00 1.0000e+00
       25  1    1    2    0    0 +0.0000000000e+00 +0.0000000000e+00 -2.3962122795e+02 2.7026530092e+02 1.2500000000e+02 0.0000e+00 0.0000e+00
<mgrwt>
<rscale>  0 0.12500000E+03</rscale>
<asrwt>0</asrwt>
<pdfrwt beam="1">  1       21 0.23572363E-02 0.12500000E+03</pdfrwt>
<pdfrwt beam="2">  1       21 0.39222042E-01 0.12500000E+03</pdfrwt>
<totfact> 0.58020984E+06</totfact>
</mgrwt>
</event>
<event>
 3      1 +1.7592000e+01 1.25000000e+02 7.54677100e-03 1.23506900e-01
       21 -1    0    0  502  501 +0.0000000000e+00 +0.0000000000e+00 +9.9007161470e+02 9.9007161470e+02 0.0000000000e+00 0.0000e+00 -1.0000e+00
       21 -1    0    0  501  502 -0.0000000000e+00 -0.0000000000e+00 -3.9454216665e+00 3.9454216665e+00 0.0000000000e+00 0.0000e+00 -1.0000e+00
       25  1    1    2    0    0 +0.0000000000e+00 +0.0000000000e+00 +9.8612619304e+02 9.9401703637e+02 1.2500000000e+02 0.0000e+00 0.0000e+00
<mgrwt>
<rscale>  0 0.12500000E+03</rscale>
<asrwt>0</asrwt>
<pdfrwt beam="1">  1       21 0.15231851E+00 0.12500000E+03</pdfrwt>
<pdfrwt beam="2">  1       21 0.60698874E-03 0.12500000E+03</pdfrwt>
<totfact> 0.23768757E+06</totfact>
</mgrwt>
</event>
<event>
 3      1 +1.7592000e+01 1.25000000e+02 7.54677100e-03 1.23506900e-01
       21 -1    0    0  502  501 +0.0000000000e+00 +0.0000000000e+00 +1.3126808240e+01 1.3126808240e+01 0.0000000000e+00 0.0000e+00 -1.0000e+00
       21 -1    0    0  501  502 -0.0000000000e+00 -0.0000000000e+00 -2.9757805010e+02 2.9757805010e+02 0.0000000000e+00 0.0000e+00 -1.0000e+00
       25  1    1    2    0    0 +0.0000000000e+00 +0.0000000000e+00 -2.8445124186e+02 3.1070485834e+02 1.2500000000e+02 0.0000e+00 0.0000e+00
<mgrwt>
<rscale>  0 0.12500000E+03</rscale>
<asrwt>0</asrwt>
<pdfrwt beam="1">  1       21 0.20195090E-02 0.12500000E+03</pdfrwt>
<pdfrwt beam="2">  1       21 0.45781239E-01 0.12500000E+03</pdfrwt>
<totfact> 0.54578126E+06</totfact>
</mgrwt>
</event>
<event>
 3      1 +1.7592000e+01 1.25000000e+02 7.54677100e-03 1.23506900e-01
       21 -1    0    0  502  501 +0.0000000000e+00 +0.0000000000e+00 +4.5162269948e+00 4.5162269948e+00 0.0000000000e+00 0.0000e+00 -1.0000e+00
       21 -1    0    0  501  502 -0.0000000000e+00 -0.0000000000e+00 -8.6493659519e+02 8.6493659519e+02 0.0000000000e+00 0.0000e+00 -1.0000e+00
       25  1    1    2    0    0 +0.0000000000e+00 +0.0000000000e+00 -8.6042036819e+02 8.6945282218e+02 1.2500000000e+02 0.0000e+00 0.0000e+00
<mgrwt>
<rscale>  0 0.12500000E+03</rscale>
<asrwt>0</asrwt>
<pdfrwt beam="1">  1       21 0.69480448E-03 0.12500000E+03</pdfrwt>
<pdfrwt beam="2">  1       21 0.13306711E+00 0.12500000E+03</pdfrwt>
<totfact> 0.27186543E+06</totfact>
</mgrwt>
</event>
<event>
 3      1 +1.7592000e+01 1.25000000e+02 7.54677100e-03 1.23506900e-01
       21 -1    0    0  502  501 +0.0000000000e+00 +0.0000000000e+00 +8.8551693122e+02 8.8551693122e+02 0.0000000000e+00 0.0000e+00 1.0000e+00
       21 -1    0    0  501  502 -0.0000000000e+00 -0.0000000000e+00 -4.4112651744e+00 4.4112651744e+00 0.0000000000e+00 0.0000e+00 1.0000e+00
       25  1    1    2    0    0 +0.0000000000e+00 +0.0000000000e+00 +8.8110566604e+02 8.8992819639e+02 1.2500000000e+02 0.0000e+00 0.0000e+00
<mgrwt>
<rscale>  0 0.12500000E+03</rscale>
<asrwt>0</asrwt>
<pdfrwt beam="1">  1       21 0.13623323E+00 0.12500000E+03</pdfrwt>
<pdfrwt beam="2">  1       21 0.67865688E-03 0.12500000E+03</pdfrwt>
<totfact> 0.26589360E+06</totfact>
</mgrwt>
</event>
<event>
 3      1 +1.7592000e+01 1.25000000e+02 7.54677100e-03 1.23506900e-01
       21 -1    0    0  502  501 +0.0000000000e+00 +0.0000000000e+00 +5.2149930180e+00 5.2149930180e+00 0.0000000000e+00 0.0000e+00 -1.0000e+00
       21 -1    0    0  501  502 -0.0000000000e+00 -0.0000000000e+00 -7.4904223007e+02 7.4904223007e+02 0.0000000000e+00 0.0000e+00 -1.0000e+00
       25  1    1    2    0    0 +0.0000000000e+00 +0.0000000000e+00 -7.4382723705e+02 7.5425722309e+02 1.2500000000e+02 0.0000e+00 0.0000e+00
<mgrwt>
<rscale>  0 0.12500000E+03</rscale>
<asrwt>0</asrwt>
<pdfrwt beam="1">  1       21 0.80230660E-03 0.12500000E+03</pdfrwt>
<pdfrwt beam="2">  1       21 0.11523727E+00 0.12500000E+03</pdfrwt>
<totfact> 0.30919690E+06</totfact>
</mgrwt>
</event>
<event>
 3      1 +1.7592000e+01 1.25000000e+02 7.54677100e-03 1.23506900e-01
       21 -1    0    0  502  501 +0.0000000000e+00 +0.0000000000e+00 +1.8003109071e+01 1.8003109071e+01 0.0000000000e+00 0.0000e+00 1.0000e+00
       21 -1    0    0  501  502 -0.0000000000e+00 -0.0000000000e+00 -2.1697641139e+02 2.1697641139e+02 0.0000000000e+00 0.0000e+00 1.0000e+00
       25  1    1    2    0    0 +0.0000000000e+00 +0.0000000000e+00 -1.9897330232e+02 2.3497952046e+02 1.2500000000e+02 0.0000e+00 0.0000e+00
<mgrwt>
<rscale>  0 0.12500000E+03</rscale>
<asrwt>0</asrwt>
<pdfrwt beam="1">  1       21 0.27697089E-02 0.12500000E+03</pdfrwt>
<pdfrwt beam="2">  1       21 0.33380989E-01 0.12500000E+03</pdfrwt>
<totfact> 0.61321892E+06</totfact>
</mgrwt>
</event>
<event>
 3      1 +1.7592000e+01 1.25000000e+02 7.54677100e-03 1.23506900e-01
       21 -1    0    0  502  501 +0.0000000000e+00 +0.0000000000e+00 +1.2278214821e+02 1.2278214821e+02 0.0000000000e+00 0.0000e+00 1.0000e+00
       21 -1    0    0  501  502 -0.0000000000e+00 -0.0000000000e+00 -3.1814478382e+01 3.1814478382e+01 0.0000000000e+00 0.0000e+00 1.0000e+00
       25  1    1    2    0    0 +0.0000000000e+00 +0.0000000000e+00 +9.0967669828e+01 1.5459662659e+02 1.2500000000e+02 0.0000e+00 0.0000e+00
<mgrwt>
<rscale>  0 0.12500000E+03</rscale>
<asrwt>0</asrwt>
<pdfrwt beam="1">  1       21 0.18889561E-01 0.12500000E+03</pdfrwt>
<pdfrwt beam="2">  1       21 0.48945352E-02 0.12500000E+03</pdfrwt>
<totfact> 0.70185828E+06</totfact>
</mgrwt>
</event>
<event>
 3      1 +1.7592000e+01 1.25000000e+02 7.54677100e-03 1.23506900e-01
       21 -1    0    0  502  501 +0.0000000000e+00 +0.0000000000e+00 +2.5400920521e+01 2.5400920521e+01 0.0000000000e+00 0.0000e+00 1.0000e+00
       21 -1    0    0  501  502 -0.0000000000e+00 -0.0000000000e+00 -1.5378379680e+02 1.5378379680e+02 0.0000000000e+00 0.0000e+00 1.0000e+00
       25  1    1    2    0    0 +0.0000000000e+00 +0.0000000000e+00 -1.2838287628e+02 1.7918471732e+02 1.2500000000e+02 0.0000e+00 0.0000e+00
<mgrwt>
<rscale>  0 0.12500000E+03</rscale>
<asrwt>0</asrwt>
<pdfrwt beam="1">  1       21 0.39078340E-02 0.12500000E+03</pdfrwt>
<pdfrwt beam="2">  1       21 0.23659045E-01 0.12500000E+03</pdfrwt>
<totfact> 0.67245187E+06</totfact>
</mgrwt>
</event>
<event>
 3      1 +1.7592000e+01 1.25000000e+02 7.54677100e-03 1.23506900e-01
       21 -1    0    0  502  501 +0.0000000000e+00 +0.0000000000e+00 +5.9875849594e+01 5.9875849594e+01 0.0000000000e+00 0.0000e+00 1.0000e+00
       21 -1    0    0  501  502 -0.0000000000e+00 -0.0000000000e+00 -6.5239157799e+01 6.5239157799e+01 0.0000000000e+00 0.0000e+00 1.0000e+00
       25  1    1    2    0    0 +0.0000000000e+00 +0.0000000000e+00 -5.3633082046e+00 1.2511500739e+02 1.2500000000e+02 0.0000e+00 0.0000e+00
<mgrwt>
<rscale>  0 0.12500000E+03</rscale>
<asrwt>0</asrwt>
<pdfrwt beam="1">  1       21 0.92116692E-02 0.12500000E+03</pdfrwt>
<pdfrwt beam="2">  1       21 0.10036793E-01 0.12500000E+03</pdfrwt>
<totfact> 0.74028049E+06</totfact>
</mgrwt>
</event>
<event>
 3      1 +1.7592000e+01 1.25000000e+02 7.54677100e-03 1.23506900e-01
       21 -1    0    0  502  501 +0.0000000000e+00 +0.0000000000e+00 +1.2536055172e+02 1.2536055172e+02 0.0000000000e+00 0.0000e+00 -1.0000e+00
       21 -1    0    0  501  502 -0.0000000000e+00 -0.0000000000e+00 -3.1160121317e+01 3.1160121317e+01 0.0000000000e+00 0.0000e+00 -1.0000e+00
       25  1    1    2    0    0 +0.0000000000e+00 +0.0000000000e+00 +9.4200430406e+01 1.5652067304e+02 1.2500000000e+02 0.0000e+00 0.0000e+00
<mgrwt>
<rscale>  0 0.12500000E+03</rscale>
<asrwt>0</asrwt>
<pdfrwt beam="1">  1       21 0.19286238E-01 0.12500000E+03</pdfrwt>
<pdfrwt beam="2">  1       21 0.47938649E-02 0.12500000E+03</pdfrwt>
<totfact> 0.69947150E+06</totfact>
</mgrwt>
</event>
<event>
 3      1 +1.7592000e+01 1.25000000e+02 7.54677100e-03 1.23506900e-01
       21 -1    0    0  502  501 +0.0000000000e+00 +0.0000000000e+00 +1.0329903262e+02 1.0329903262e+02 0.0000000000e+00 0.0000e+00 -1.0000e+00
       21 -1    0    0  501  502 -0.0000000000e+00 -0.0000000000e+00 -3.7814971748e+01 3.7814971748e+01 0.0000000000e+00 0.0000e+00 -1.0000e+00
       25  1    1    2    0    0 +0.0000000000e+00 +0.0000000000e+00 +6.5484060869e+01 1.4111400437e+02 1.2500000000e+02 0.0000e+00 0.0000e+00
<mgrwt>
<rscale>  0 0.12500000E+03</rscale>
<asrwt>0</asrwt>
<pdfrwt beam="1">  1       21 0.15892159E-01 0.12500000E+03</pdfrwt>
<pdfrwt beam="2">  1       21 0.58176880E-02 0.12500000E+03</pdfrwt>
<totfact> 0.71894209E+06</totfact>
</mgrwt>
</event>
<event>
 3      1 +1.7592000e+01 1.25000000e+02 7.54677100e-03 1.23506900e-01
       21 -1    0    0  502  501 +0.0000000000e+00 +0.0000000000e+00 +9.6658506891e+00 9.6658506891e+00 0.0000000000e+00 0.0000e+00 -1.0000e+00
       21 -1    0    0  501  502 -0.0000000000e+00 -0.0000000000e+00 -4.0412894070e+02 4.0412894070e+02 0.0000000000e+00 0.0000e+00 -1.0000e+00
       25  1    1    2    0    0 +0.0000000000e+00 +0.0000000000e+00 -3.9446309001e+02 4.1379479139e+02 1.2500000000e+02 0.0000e+00 0.0000e+00
<mgrwt>
<rscale>  0 0.12500000E+03</rscale>
<asrwt>0</asrwt>
<pdfrwt beam="1">  1       21 0.14870542E-02 0.12500000E+03</pdfrwt>
<pdfrwt beam="2">  1       21 0.62173671E-01 0.12500000E+03</pdfrwt>
<totfact> 0.47139623E+06</totfact>
</mgrwt>
</event>
<event>
 3      1 +1.7592000e+01 1.25000000e+02 7.54677100e-03 1.23506900e-01
       21 -1    0    0  502  501 +0.0000000000e+00 +0.0000000000e+00 +2.6751226202e+00 2.6751226202e+00 0.0000000000e+00 0.0000e+00 1.0000e+00
       21 -1    0    0  501  502 -0.0000000000e+00 -0.0000000000e+00 -1.4602134386e+03 1.4602134386e+03 0.0000000000e+00 0.0000e+00 1.0000e+00
       25  1    1    2    0    0 +0.0000000000e+00 +0.0000000000e+00 -1.4575383160e+03 1.4628885612e+03 1.2500000000e+02 0.0000e+00 0.0000e+00
<mgrwt>
<rscale>  0 0.12500000E+03</rscale>
<asrwt>0</asrwt>
<pdfrwt beam="1">  1       21 0.41155733E-03 0.12500000E+03</pdfrwt>
<pdfrwt beam="2">  1       21 0.22464822E+00 0.12500000E+03</pdfrwt>
<totfact> 0.14552129E+06</totfact>
</mgrwt>
</event>
<event>
 3      1 +1.7592000e+01 1.25000000e+02 7.54677100e-03 1.23506900e-01
       21 -1    0    0  502  501 +0.0000000000e+00 +0.0000000000e+00 +1.0446342299e+01 1.0446342299e+01 0.0000000000e+00 0.0000e+00 1.0000e+00
       21 -1    0    0  501  502 -0.0000000000e+00 -0.0000000000e+00 -3.7393471210e+02 3.7393471210e+02 0.0000000000e+00 0.0000e+00 1.0000e+00
       25  1    1    2    0    0 +0.0000000000e+00 +0.0000000000e+00 -3.6348836980e+02 3.8438105440e+02 1.2500000000e+02 0.0000e+00 0.0000e+00
<mgrwt>
<rscale>  0 0.12500000E+03</rscale>
<asrwt>0</asrwt>
<pdfrwt beam="1">  1       21 0.16071296E-02 0.12500000E+03</pdfrwt>
<pdfrwt beam="2">  1       21 0.57528418E-01 0.12500000E+03</pdfrwt>
<totfact> 0.49094890E+06</totfact>
</mgrwt>
</event>
<event>
 3      1 +1.7592000e+01 1.25000000e+02 7.54677100e-03 1.23506900e-01
       21 -1    0    0  502  501 +0.0000000000e+00 +0.0000000000e+00 +9.5938953345e+01 9.5938953345e+01 0.0000000000e+00 0.0000e+00 1.0000e+00
       21 -1    0    0  501  502 -0.0000000000e+00 -0.0000000000e+00 -4.0715995576e+01 4.0715995576e+01 0.0000000000e+00 0.0000e+00 1.0000e+00
       25  1    1    2    0    0 +0.0000000000e+00 +0.0000000000e+00 +5.5222957769e+01 1.3665494892e+02 1.2500000000e+02 0.0000e+00 0.0000e+00
<mgrwt>
<rscale>  0 0.12500000E+03</rscale>
<asrwt>0</asrwt>
<pdfrwt beam="1">  1       21 0.14759839E-01 0.12500000E+03</pdfrwt>
<pdfrwt beam="2">  1       21 0.62639994E-02 0.12500000E+03</pdfrwt>
<totfact> 0.72478080E+06</totfact>
</mgrwt>
</event>
<event>
 3      1 +1.7592000e+01 1.25000000e+02 7.54677100e-03 1.23506900e-01
       21 -1    0    0  502  501 +0.0000000000e+00 +0.0000000000e+00 +6.5264993033e+01 6.5264993033e+01 0.0000000000e+00 0.0000e+00 1.0000e+00
       21 -1    0    0  501  502 -0.0000000000e+00 -0.0000000000e+00 -5.9852147660e+01 5.9852147660e+01 0.0000000000e+00 0.0000e+00 1.0000e+00
       25  1    1    2    0    0 +0.0000000000e+00 +0.0000000000e+00 +5.4128453728e+00 1.2511714069e+02 1.2500000000e+02 0.0000e+00 0.0000e+00
<mgrwt>
<rscale>  0 0.12500000E+03</rscale>
<asrwt>0</asrwt>
<pdfrwt beam="1">  1       21 0.10040768E-01 0.12500000E+03</pdfrwt>
<pdfrwt beam="2">  1       21 0.92080227E-02 0.12500000E+03</pdfrwt>
<totfact> 0.74027761E+06</totfact>
</mgrwt>
</event>
<event>
 3      1 +1.7592000e+01 1.25000000e+02 7.54677100e-03 1.23506900e-01
       21 -1    0    0  502  501 +0.0000000000e+00 +0.0000000000e+00 +9.5822847279e+01 9.5822847279e+01 0.0000000000e+00 0.0000e+00 -1.0000e+00
       21 -1    0    0  501  502 -0.0000000000e+00 -0.0000000000e+00 -4.0765330096e+01 4.0765330096e+01 0.0000000000e+00 0.0000e+00 -1.0000e+00
       25  1    1    2    0    0 +0.0000000000e+00 +0.0000000000e+00 +5.5057517183e+01 1.3658817737e+02 1.2500000000e+02 0.0000e+00 0.0000e+00
<mgrwt>
<rscale>  0 0.12500000E+03</rscale>
<asrwt>0</asrwt>
<pdfrwt beam="1">  1       21 0.14741976E-01 0.12500000E+03</pdfrwt>
<pdfrwt beam="2">  1       21 0.62715893E-02 0.12500000E+03</pdfrwt>
<totfact> 0.72486863E+06</totfact>
</mgrwt>
</event>
<event>
 3      1 +1.7592000e+01 1.25000000e+02 7.54677100e-03 1.23506900e-01
       21 -1    0    0  502  501 +0.0000000000e+00 +0.0000000000e+00 +1.4807699947e+02 1.4807699947e+02 0.0000000000e+00 0.0000e+00 -1.0000e+00
       21 -1    0    0  501  502 -0.0000000000e+00 -0.0000000000e+00 -2.6379856521e+01 2.6379856521e+01 0.0000000000e+00 0.0000e+00 -1.0000e+00
       25  1    1    2    0    0 +0.0000000000e+00 +0.0000000000e+00 +1.2169714295e+02 1.7445685599e+02 1.2500000000e+02 0.0000e+00 0.0000e+00
<mgrwt>
<rscale>  0 0.12500000E+03</rscale>
<asrwt>0</asrwt>
<pdfrwt beam="1">  1       21 0.22781076E-01 0.12500000E+03</pdfrwt>
<pdfrwt beam="2">  1       21 0.40584395E-02 0.12500000E+03</pdfrwt>
<totfact> 0.67793189E+06</totfact>
</mgrwt>
</event>
<event>
 3      1 +1.7592000e+01 1.25000000e+02 7.54677100e-03 1.23506900e-01
       21 -1    0    0  502  501 +0.0000000000e+00 +0.0000000000e+00 +4.0013408648e+00 4.0013408648e+00 0.0000000000e+00 0.0000e+00 1.0000e+00
       21 -1    0    0  501  502 -0.0000000000e+00 -0.0000000000e+00 -9.7623525012e+02 9.7623525012e+02 0.0000000000e+00 0.0000e+00 1.0000e+00
       25  1    1    2    0    0 +0.0000000000e+00 +0.0000000000e+00 -9.7223390926e+02 9.8023659099e+02 1.2500000000e+02 0.0000e+00 0.0000e+00
<mgrwt>
<rscale>  0 0.12500000E+03</rscale>
<asrwt>0</asrwt>
<pdfrwt beam="1">  1       21 0.61559090E-03 0.12500000E+03</pdfrwt>
<pdfrwt beam="2">  1       21 0.15019004E+00 0.12500000E+03</pdfrwt>
<totfact> 0.24118957E+06</totfact>
</mgrwt>
</event>
<event>
 3      1 +1.7592000e+01 1.25000000e+02 7.54677100e-03 1.23506900e-01
       21 -1    0    0  502  501 +0.0000000000e+00 +0.0000000000e+00 +1.2849532362e+02 1.2849532362e+02 0.0000000000e+00 0.0000e+00 1.0000e+00
       21 -1    0    0  501  502 -0.0000000000e+00 -0.0000000000e+00 -3.0399939000e+01 3.0399939000e+01 0.0000000000e+00 0.0000e+00 1.0000e+00
       25  1    1    2    0    0 +0.0000000000e+00 +0.0000000000e+00 +9.8095384624e+01 1.5889526262e+02 1.2500000000e+02 0.0000e+00 0.0000e+00
<mgrwt>
<rscale>  0 0.12500000E+03</rscale>
<asrwt>0</asrwt>
<pdfrwt beam="1">  1       21 0.19768511E-01 0.12500000E+03</pdfrwt>
<pdfrwt beam="2">  1       21 0.46769137E-02 0.12500000E+03</pdfrwt>
<totfact> 0.69654735E+06</totfact>
</mgrwt>
</event>
<event>
 3      1 +1.7592000e+01 1.25000000e+02 7.54677100e-03 1.23506900e-01
       21 -1    0    0  502  501 +0.0000000000e+00 +0.0000000000e+00 +5.2509490308e+01 5.2509490308e+01 0.0000000000e+00 0.0000e+00 1.0000e+00
       21 -1    0    0  501  502 -0.0000000000e+00 -0.0000000000e+00 -7.4391314353e+01 7.4391314353e+01 0.0000000000e+00 0.0000e+00 1.0000e+00
       25  1    1    2    0    0 +0.0000000000e+00 +0.0000000000e+00 -2.1881824045e+01 1.2690080466e+02 1.2500000000e+02 0.0000e+00 0.0000e+00
<mgrwt>
<rscale>  0 0.12500000E+03</rscale>
<asrwt>0</asrwt>
<pdfrwt beam="1">  1       21 0.80783831E-02 0.12500000E+03</pdfrwt>
<pdfrwt beam="2">  1       21 0.11444818E-01 0.12500000E+03</pdfrwt>
<totfact> 0.73782646E+06</totfact>
</mgrwt>
</event>
<event>
 3      1 +1.7592000e+01 1.25000000e+02 7.54677100e-03 1.23506900e-01
       21 -1    0    0  502  501 +0.0000000000e+00 +0.0000000000e+00 +1.8839139339e+03 1.8839139339e+03 0.0000000000e+00 0.0000e+00 -1.0000e+00
       21 -1    0    0  501  502 -0.0000000000e+00 -0.0000000000e+00 -2.0734758258e+00 2.0734758258e+00 0.0000000000e+00 0.0000e+00 -1.0000e+00
       25  1    1    2    0    0 +0.0000000000e+00 +0.0000000000e+00 +1.8818404581e+03 1.8859874098e+03 1.2500000000e+02 0.0000e+00 0.0000e+00
<mgrwt>
<rscale>  0 0.12500000E+03</rscale>
<asrwt>0</asrwt>
<pdfrwt beam="1">  1       21 0.28983154E+00 0.12500000E+03</pdfrwt>
<pdfrwt beam="2">  1       21 0.31899779E-03 0.12500000E+03</pdfrwt>
<totfact> 0.91145303E+05</totfact>
</mgrwt>
</event>
<event>
 3      1 +1.7592000e+01 1.25000000e+02 7.54677100e-03 1.23506900e-01
       21 -1    0    0  502  501 +0.0000000000e+00 +0.0000000000e+00 +6.6982617353e+02 6.6982617353e+02 0.0000000000e+00 0.0000e+00 -1.0000e+00
       21 -1    0    0  501  502 -0.0000000000e+00 -0.0000000000e+00 -5.8317368809e+00 5.8317368809e+00 0.0000000000e+00 0.0000e+00 -1.0000e+00
       25  1    1    2    0    0 +0.0000000000e+00 +0.0000000000e+00 +6.6399443665e+02 6.7565791042e+02 1.2500000000e+02 0.0000e+00 0.0000e+00
<mgrwt>
<rscale>  0 0.12500000E+03</rscale>
<asrwt>0</asrwt>
<pdfrwt beam="1">  1       21 0.10305012E+00 0.12500000E+03</pdfrwt>
<pdfrwt beam="2">  1       21 0.89719082E-03 0.12500000E+03</pdfrwt>
<totfact> 0.33869918E+06</totfact>
</mgrwt>
</event>
<event>
 3      1 +1.7592000e+01 1.25000000e+02 7.54677100e-03 1.23506900e-01
       21 -1    0    0  502  501 +0.0000000000e+00 +0.0000000000e+00 +6.7936649310e+02 6.7936649310e+02 0.0000000000e+00 0.0000e+00 1.0000e+00
       21 -1    0    0  501  502 -0.0000000000e+00 -0.0000000000e+00 -5.7498420068e+00 5.7498420068e+00 0.0000000000e+00 0.0000e+00 1.0000e+00
       25  1    1    2    0    0 +0.0000000000e+00 +0.0000000000e+00 +6.7361665109e+02 6.8511633510e+02 1.2500000000e+02 0.0000e+00 0.0000e+00
<mgrwt>
<rscale>  0 0.12500000E+03</rscale>
<asrwt>0</asrwt>
<pdfrwt beam="1">  1       21 0.10451786E+00 0.12500000E+03</pdfrwt>
<pdfrwt beam="2">  1       21 0.88459162E-03 0.12500000E+03</pdfrwt>
<totfact> 0.33491913E+06</totfact>
</mgrwt>
</event>
<event>
 3      1 +1.7592000e+01 1.25000000e+02 7.54677100e-03 1.23506900e-01
       21 -1    0    0  502  501 +0.0000000000e+00 +0.0000000000e+00 +9.9915209823e+01 9.9915209823e+01 0.0000000000e+00 0.0000e+00 -1.0000e+00
       21 -1    0    0  501  502 -0.0000000000e+00 -0.0000000000e+00 -3.9095649270e+01 3.9095649270e+01 0.0000000000e+00 0.0000e+00 -1.0000e+00
       25  1    1    2    0    0 +0.0000000000e+00 +0.0000000000e+00 +6.0819560552e+01 1.3901085909e+02 1.2500000000e+02 0.0000e+00 0.0000e+00
<mgrwt>
<rscale>  0 0.12500000E+03</rscale>
<asrwt>0</asrwt>
<pdfrwt beam="1">  1       21 0.15371571E-01 0.12500000E+03</pdfrwt>
<pdfrwt beam="2">  1       21 0.60147153E-02 0.12500000E+03</pdfrwt>
<totfact> 0.72168703E+06</totfact>
</mgrwt>
</event>
<event>
 3      1 +1.7592000e+01 1.25000000e+02 7.54677100e-03 1.23506900e-01
       21 -1    0    0  502  501 +0.0000000000e+00 +0.0000000000e+00 +4.9154327119e+01 4.9154327119e+01 0.0000000000e+00 0.0000e+00 1.0000e+00
       21 -1    0    0  501  502 -0.0000000000e+00 -0.0000000000e+00 -7.9469097208e+01 7.9469097208e+01 0.0000000000e+00 0.0000e+00 1.0000e+00
       25  1    1    2    0    0 +0.0000000000e+00 +0.0000000000e+00 -3.0314770090e+01 1.2862342433e+02 1.2500000000e+02 0.0000e+00 0.0000e+00
<mgrwt>
<rscale>  0 0.12500000E+03</rscale>
<asrwt>0</asrwt>
<pdfrwt beam="1">  1       21 0.75622042E-02 0.12500000E+03</pdfrwt>
<pdfrwt beam="2">  1       21 0.12226015E-01 0.12500000E+03</pdfrwt>
<totfact> 0.73549506E+06</totfact>
</mgrwt>
</event>
<event>
 3      1 +1.7592000e+01 1.25000000e+02 7.54677100e-03 1.23506900e-01
       21 -1    0    0  502  501 +0.0000000000e+00 +0.0000000000e+00 +4.3854905127e+01 4.3854905127e+01 0.0000000000e+00 0.0000e+00 -1.0000e+00
       21 -1    0    0  501  502 -0.0000000000e+00 -0.0000000000e+00 -8.9072134320e+01 8.9072134320e+01 0.0000000000e+00 0.0000e+00 -1.0000e+00
       25  1    1    2    0    0 +0.0000000000e+00 +0.0000000000e+00 -4.5217229193e+01 1.3292703945e+02 1.2500000000e+02 0.0000e+00 0.0000e+00
<mgrwt>
<rscale>  0 0.12500000E+03</rscale>
<asrwt>0</asrwt>
<pdfrwt beam="1">  1       21 0.67469086E-02 0.12500000E+03</pdfrwt>
<pdfrwt beam="2">  1       21 0.13703405E-01 0.12500000E+03</pdfrwt>
<totfact> 0.72972142E+06</totfact>
</mgrwt>
</event>
<event>
 3      1 +1.7592000e+01 1.25000000e+02 7.54677100e-03 1.23506900e-01
       21 -1    0    0  502  501 +0.0000000000e+00 +0.0000000000e+00 +2.4870765701e+01 2.4870765701e+01 0.0000000000e+00 0.0000e+00 1.0000e+00
       21 -1    0    0  501  502 -0.0000000000e+00 -0.0000000000e+00 -1.5706191144e+02 1.5706191144e+02 0.0000000000e+00 0.0000e+00 1.0000e+00
       25  1    1    2    0    0 +0.0000000000e+00 +0.0000000000e+00 -1.3219114574e+02 1.8193267714e+02 1.2500000000e+02 0.0000e+00 0.0000e+00
<mgrwt>
<rscale>  0 0.12500000E+03</rscale>
<asrwt>0</asrwt>
<pdfrwt beam="1">  1       21 0.38262716E-02 0.12500000E+03</pdfrwt>
<pdfrwt beam="2">  1       21 0.24163371E-01 0.12500000E+03</pdfrwt>
<totfact> 0.66930515E+06</totfact>
</mgrwt>
</event>
<event>
 3      1 +1.7592000e+01 1.25000000e+02 7.54677100e-03 1.23506900e-01
       21 -1    0    0  502  501 +0.0000000000e+00 +0.0000000000e+00 +2.6696266989e+01 2.6696266989e+01 0.0000000000e+00 0.0000e+00 1.0000e+00
       21 -1    0    0  501  502 -0.0000000000e+00 -0.0000000000e+00 -1.4632195586e+02 1.4632195586e+02 0.0000000000e+00 0.0000e+00 1.0000e+00
       25  1    1    2    0    0 +0.0000000000e+00 +0.0000000000e+00 -1.1962568887e+02 1.7301822285e+02 1.2500000000e+02 0.0000e+00 0.0000e+00
<mgrwt>
<rscale>  0 0.12500000E+03</rscale>
<asrwt>0</asrwt>
<pdfrwt beam="1">  1       21 0.41071179E-02 0.12500000E+03</pdfrwt>
<pdfrwt beam="2">  1       21 0.22511071E-01 0.12500000E+03</pdfrwt>
<totfact> 0.67961631E+06</totfact>
</mgrwt>
</event>
<event>
 3      1 +1.7592000e+01 1.25000000e+02 7.54677100e-03 1.23506900e-01
       21 -1    0    0  502  501 +0.0000000000e+00 +0.0000000000e+00 +1.3483734803e+02 1.3483734803e+02 0.0000000000e+00 0.0000e+00 1.0000e+00
       21 -1    0    0  501  502 -0.0000000000e+00 -0.0000000000e+00 -2.8970089201e+01 2.8970089201e+01 0.0000000000e+00 0.0000e+00 1.0000e+00
       25  1    1    2    0    0 +0.0000000000e+00 +0.0000000000e+00 +1.0586725883e+02 1.6380743723e+02 1.2500000000e+02 0.0000e+00 0.0000e+00
<mgrwt>
<rscale>  0 0.12500000E+03</rscale>
<asrwt>0</asrwt>
<pdfrwt beam="1">  1       21 0.20744207E-01 0.12500000E+03</pdfrwt>
<pdfrwt beam="2">  1       21 0.44569369E-02 0.12500000E+03</pdfrwt>
<totfact> 0.69057235E+06</totfact>
</mgrwt>
</event>
<event>
 3      1 +1.7592000e+01 1.25000000e+02 7.54677100e-03 1.23506900e-01
       21 -1    0    0  502  501 +0.0000000000e+00 +0.0000000000e+00 +6.0979997677e+01 6.0979997677e+01 0.0000000000e+00 0.0000e+00 1.0000e+00
       21 -1    0    0  501  502 -0.0000000000e+00 -0.0000000000e+00 -6.4057890272e+01 6.4057890272e+01 0.0000000000e+00 0.0000e+00 1.0000e+00
       25  1    1    2    0    0 +0.0000000000e+00 +0.0000000000e+00 -3.0778925948e+00 1.2503788795e+02 1.2500000000e+02 0.0000e+00 0.0000e+00
<mgrwt>
<rscale>  0 0.12500000E+03</rscale>
<asrwt>0</asrwt>
<pdfrwt beam="1">  1       21 0.93815381E-02 0.12500000E+03</pdfrwt>
<pdfrwt beam="2">  1       21 0.98550600E-02 0.12500000E+03</pdfrwt>
<totfact> 0.74038464E+06</totfact>
</mgrwt>
</event>
<event>
 3      1 +1.7592000e+01 1.25000000e+02 7.54677100e-03 1.23506900e-01
       21 -1    0    0  502  501 +0.0000000000e+00 +0.0000000000e+00 +3.8267034384e+02 3.8267034384e+02 0.0000000000e+00 0.0000e+00 -1.0000e+00
       21 -1    0    0  501  502 -0.0000000000e+00 -0.0000000000e+00 -1.0207872292e+01 1.0207872292e+01 0.0000000000e+00 0.0000e+00 -1.0000e+00
       25  1    1    2    0    0 +0.0000000000e+00 +0.0000000000e+00 +3.7246247155e+02 3.9287821614e+02 1.2500000000e+02 0.0000e+00 0.0000e+00
<mgrwt>
<rscale>  0 0.12500000E+03</rscale>
<asrwt>0</asrwt>
<pdfrwt beam="1">  1       21 0.58872350E-01 0.12500000E+03</pdfrwt>
<pdfrwt beam="2">  1       21 0.15704422E-02 0.12500000E+03</pdfrwt>
<totfact> 0.48517351E+06</totfact>
</mgrwt>
</event>
<event>
 3      1 +1.7592000e+01 1.25000000e+02 7.54677100e-03 1.23506900e-01
       21 -1    0    0  502  501 +0.0000000000e+00 +0.0000000000e+00 +1.7968065589e+02 1.7968065589e+02 0.0000000000e+00 0.0000e+00 1.0000e+00
       21 -1    0    0  501  502 -0.0000000000e+00 -0.0000000000e+00 -2.1739958487e+01 2.1739958487e+01 0.0000000000e+00 0.0000e+00 1.0000e+00
       25  1    1    2    0    0 +0.0000000000e+00 +0.0000000000e+00 +1.5794069740e+02 2.0142061438e+02 1.2500000000e+02 0.0000e+00 0.0000e+00
<mgrwt>
<rscale>  0 0.12500000E+03</rscale>
<asrwt>0</asrwt>
<pdfrwt beam="1">  1       21 0.27643177E-01 0.12500000E+03</pdfrwt>
<pdfrwt beam="2">  1       21 0.33446091E-02 0.12500000E+03</pdfrwt>
<totfact> 0.64773644E+06</totfact>
</mgrwt>
</event>
<event>
 3      1 +1.7592000e+01 1.25000000e+02 7.54677100e-03 1.23506900e-01
       21 -1    0    0  502  501 +0.0000000000e+00 +0.0000000000e+00 +6.9811567296e+01 6.9811567296e+01 0.0000000000e+00 0.0000e+00 -1.0000e+00
       21 -1    0    0  501  502 -0.0000000000e+00 -0.0000000000e+00 -5.5954194288e+01 5.5954194288e+01 0.0000000000e+00 0.0000e+00 -1.0000e+00
       25  1    1    2    0    0 +0.0000000000e+00 +0.0000000000e+00 +1.3857373008e+01 1.2576576158e+02 1.2500000000e+02 0.0000e+00 0.0000e+00
<mgrwt>
<rscale>  0 0.12500000E+03</rscale>
<asrwt>0</asrwt>
<pdfrwt beam="1">  1       21 0.10740241E-01 0.12500000E+03</pdfrwt>
<pdfrwt beam="2">  1       21 0.86083376E-02 0.12500000E+03</pdfrwt>
<totfact> 0.73938415E+06</totfact>
</mgrwt>
</event>
<event>
 3      1 +1.7592000e+01 1.25000000e+02 7.54677100e-03 1.23506900e-01
       21 -1    0    0  502  501 +0.0000000000e+00 +0.0000000000e+00 +2.7984872050e+02 2.7984872050e+02 0.0000000000e+00 0.0000e+00 -1.0000e+00
       21 -1    0    0  501  502 -0.0000000000e+00 -0.0000000000e+00 -1.3958434375e+01 1.3958434375e+01 0.0000000000e+00 0.0000e+00 -1.0000e+00
       25  1    1    2    0    0 +0.0000000000e+00 +0.0000000000e+00 +2.6589028612e+02 2.9380715487e+02 1.2500000000e+02 0.0000e+00 0.0000e+00
<mgrwt>
<rscale>  0 0.12500000E+03</rscale>
<asrwt>0</asrwt>
<pdfrwt beam="1">  1       21 0.43053645E-01 0.12500000E+03</pdfrwt>
<pdfrwt beam="2">  1       21 0.21474517E-02 0.12500000E+03</pdfrwt>
<totfact> 0.55974784E+06</totfact>
</mgrwt>
</event>
<event>
 3      1 +1.7592000e+01 1.25000000e+02 7.54677100e-03 1.23506900e-01
       21 -1    0    0  502  501 +0.0000000000e+00 +0.0000000000e+00 +4.8802366095e+02 4.8802366095e+02 0.0000000000e+00 0.0000e+00 1.0000e+00
       21 -1    0    0  501  502 -0.0000000000e+00 -0.0000000000e+00 -8.0042225666e+00 8.0042225666e+00 0.0000000000e+00 0.0000e+00 1.0000e+00
       25  1    1    2    0    0 +0.0000000000e+00 +0.0000000000e+00 +4.8001943838e+02 4.9602788351e+02 1.2500000000e+02 0.0000e+00 0.0000e+00
<mgrwt>
<rscale>  0 0.12500000E+03</rscale>
<asrwt>0</asrwt>
<pdfrwt beam="1">  1       21 0.75080540E-01 0.12500000E+03</pdfrwt>
<pdfrwt beam="2">  1       21 0.12314192E-02 0.12500000E+03</pdfrwt>
<totfact> 0.42260318E+06</totfact>
</mgrwt>
</event>
<event>
 3      1 +1.7592000e+01 1.25000000e+02 7.54677100e-03 1.23506900e-01
       21 -1    0    0  502  501 +0.0000000000e+00 +0.0000000000e+00 +1.5907214371e+02 1.5907214371e+02 0.0000000000e+00 0.0000e+00 1.0000e+00
       21 -1    0    0  501  502 -0.0000000000e+00 -0.0000000000e+00 -2.4556467957e+01 2.4556467957e+01 0.0000000000e+00 0.0000e+00 1.0000e+00
       25  1    1    2    0    0 +0.0000000000e+00 +0.0000000000e+00 +1.3451567576e+02 1.8362861167e+02 1.2500000000e+02 0.0000e+00 0.0000e+00
<mgrwt>
<rscale>  0 0.12500000E+03</rscale>
<asrwt>0</asrwt>
<pdfrwt beam="1">  1       21 0.24472637E-01 0.12500000E+03</pdfrwt>
<pdfrwt beam="2">  1       21 0.37779182E-02 0.12500000E+03</pdfrwt>
<totfact> 0.66737693E+06</totfact>
</mgrwt>
</event>
<event>
 3      1 +1.7592000e+01 1.25000000e+02 7.54677100e-03 1.23506900e-01
       21 -1    0    0  502  501 +0.0000000000e+00 +0.0000000000e+00 +4.3188936637e+02 4.3188936637e+02 0.0000000000e+00 0.0000e+00 -1.0000e+00
       21 -1    0    0  501  502 -0.0000000000e+00 -0.0000000000e+00 -9.0445616497e+00 9.0445616497e+00 0.0000000000e+00 0.0000e+00 -1.0000e+00
       25  1    1    2    0    0 +0.0000000000e+00 +0.0000000000e+00 +4.2284480472e+02 4.4093392802e+02 1.2500000000e+02 0.0000e+00 0.0000e+00
<mgrwt>
<rscale>  0 0.12500000E+03</rscale>
<asrwt>0</asrwt>
<pdfrwt beam="1">  1       21 0.66444502E-01 0.12500000E+03</pdfrwt>
<pdfrwt beam="2">  1       21 0.13914714E-02 0.12500000E+03</pdfrwt>
<totfact> 0.45439695E+06</totfact>
</mgrwt>
</event>
<event>
 3      1 +1.7592000e+01 1.25000000e+02 7.54677100e-03 1.23506900e-01
       21 -1    0    0  502  501 +0.0000000000e+00 +0.0000000000e+00 +4.5960377856e+02 4.5960377856e+02 0.0000000000e+00 0.0000e+00 -1.0000e+00
       21 -1    0    0  501  502 -0.0000000000e+00 -0.0000000000e+00 -8.4991685930e+00 8.4991685930e+00 0.0000000000e+00 0.0000e+00 -1.0000e+00
       25  1    1    2    0    0 +0.0000000000e+00 +0.0000000000e+00 +4.5110460997e+02 4.6810294716e+02 1.2500000000e+02 0.0000e+00 0.0000e+00
<mgrwt>
<rscale>  0 0.12500000E+03</rscale>
<asrwt>0</asrwt>
<pdfrwt beam="1">  1       21 0.70708254E-01 0.12500000E+03</pdfrwt>
<pdfrwt beam="2">  1       21 0.13075648E-02 0.12500000E+03</pdfrwt>
<totfact> 0.43828484E+06</totfact>
</mgrwt>
</event>
<event>
 3      1 +1.7592000e+01 1.25000000e+02 7.54677100e-03 1.23506900e-01
       21 -1    0    0  502  501 +0.0000000000e+00 +0.0000000000e+00 +5.5091054462e+02 5.5091054462e+02 0.0000000000e+00 0.0000e+00 -1.0000e+00
       21 -1    0    0  501  502 -0.0000000000e+00 -0.0000000000e+00 -7.0905340951e+00 7.0905340951e+00 0.0000000000e+00 0.0000e+00 -1.0000e+00
       25  1    1    2    0    0 +0.0000000000e+00 +0.0000000000e+00 +5.4382001053e+02 5.5800107872e+02 1.2500000000e+02 0.0000e+00 0.0000e+00
<mgrwt>
<rscale>  0 0.12500000E+03</rscale>
<asrwt>0</asrwt>
<pdfrwt beam="1">  1       21 0.84755434E-01 0.12500000E+03</pdfrwt>
<pdfrwt beam="2">  1       21 0.10908518E-02 0.12500000E+03</pdfrwt>
<totfact> 0.39063593E+06</totfact>
</mgrwt>
</event>
<event>
 3      1 +1.7592000e+01 1.25000000e+02 7.54677100e-03 1.23506900e-01
       21 -1    0    0  502  501 +0.0000000000e+00 +0.0000000000e+00 +1.2350369541e+02 1.2350369541e+02 0.0000000000e+00 0.0000e+00 -1.0000e+00
       21 -1    0    0  501  502 -0.0000000000e+00 -0.0000000000e+00 -3.1628608254e+01 3.1628608254e+01 0.0000000000e+00 0.0000e+00 -1.0000e+00
       25  1    1    2    0    0 +0.0000000000e+00 +0.0000000000e+00 +9.1875087153e+01 1.5513230366e+02 1.2500000000e+02 0.0000e+00 0.0000e+00
<mgrwt>
<rscale>  0 0.12500000E+03</rscale>
<asrwt>0</asrwt>
<pdfrwt beam="1">  1       21 0.19000568E-01 0.12500000E+03</pdfrwt>
<pdfrwt beam="2">  1       21 0.48659398E-02 0.12500000E+03</pdfrwt>
<totfact> 0.70119219E+06</totfact>
</mgrwt>
</event>
<event>
 3      1 +1.7592000e+01 1.25000000e+02 7.54677100e-03 1.23506900e-01
       21 -1    0    0  502  501 +0.0000000000e+00 +0.0000000000e+00 +9.1751848583e+00 9.1751848583e+00 0.0000000000e+00 0.0000e+00 1.0000e+00
       21 -1    0    0  501  502 -0.0000000000e+00 -0.0000000000e+00 -4.2574074096e+02 4.2574074096e+02 0.0000000000e+00 0.0000e+00 1.0000e+00
       25  1    1    2    0    0 +0.0000000000e+00 +0.0000000000e+00 -4.1656555610e+02 4.3491592582e+02 1.2500000000e+02 0.0000e+00 0.0000e+00
<mgrwt>
<rscale>  0 0.12500000E+03</rscale>
<asrwt>0</asrwt>
<pdfrwt beam="1">  1       21 0.14115665E-02 0.12500000E+03</pdfrwt>
<pdfrwt beam="2">  1       21 0.65498596E-01 0.12500000E+03</pdfrwt>
<totfact> 0.45808470E+06</totfact>
</mgrwt>
</event>
<event>
 3      1 +1.7592000e+01 1.25000000e+02 7.54677100e-03 1.23506900e-01
       21 -1    0    0  502  501 +0.0000000000e+00 +0.0000000000e+00 +8.8226107192e+00 8.8226107192e+00 0.0000000000e+00 0.0000e+00 -1.0000e+00
       21 -1    0    0  501  502 -0.0000000000e+00 -0.0000000000e+00 -4.4275443226e+02 4.4275443226e+02 0.0000000000e+00 0.0000e+00 -1.0000e+00
       25  1    1    2    0    0 +0.0000000000e+00 +0.0000000000e+00 -4.3393182154e+02 4.5157704298e+02 1.2500000000e+02 0.0000e+00 0.0000e+00
<mgrwt>
<rscale>  0 0.12500000E+03</rscale>
<asrwt>0</asrwt>
<pdfrwt beam="1">  1       21 0.13573247E-02 0.12500000E+03</pdfrwt>
<pdfrwt beam="2">  1       21 0.68116069E-01 0.12500000E+03</pdfrwt>
<totfact> 0.44798051E+06</totfact>
</mgrwt>
</event>
<event>
 3      1 +1.7592000e+01 1.25000000e+02 7.54677100e-03 1.23506900e-01
       21 -1    0    0  502  501 +0.0000000000e+00 +0.0000000000e+00 +2.7426105558e+01 2.7426105558e+01 0.0000000000e+00 0.0000e+00 -1.0000e+00
       21 -1    0    0  501  502 -0.0000000000e+00 -0.0000000000e+00 -1.4242816909e+02 1.4242816909e+02 0.0000000000e+00 0.0000e+00 -1.0000e+00
       25  1    1    2    0    0 +0.0000000000e+00 +0.0000000000e+00 -1.1500206353e+02 1.6985427465e+02 1.2500000000e+02 0.0000e+00 0.0000e+00
<mgrwt>
<rscale>  0 0.12500000E+03</rscale>
<asrwt>0</asrwt>
<pdfrwt beam="1">  1       21 0.42194007E-02 0.12500000E+03</pdfrwt>
<pdfrwt beam="2">  1       21 0.21912027E-01 0.12500000E+03</pdfrwt>
<totfact> 0.68334914E+06</totfact>
</mgrwt>
</event>
<event>
 3      1 +1.7592000e+01 1.25000000e+02 7.54677100e-03 1.23506900e-01
       21 -1    0    0  502  501 +0.0000000000e+00 +0.0000000000e+00 +1.8424158271e+01 1.8424158271e+01 0.0000000000e+00 0.0000e+00 -1.0000e+00
       21 -1    0    0  501  502 -0.0000000000e+00 -0.0000000000e+00 -2.1201782695e+02 2.1201782695e+02 0.0000000000e+00 0.0000e+00 -1.0000e+00
       25  1    1    2    0    0 +0.0000000000e+00 +0.0000000000e+00 -1.9359366868e+02 2.3044198522e+02 1.2500000000e+02 0.0000e+00 0.0000e+00
<mgrwt>
<rscale>  0 0.12500000E+03</rscale>
<asrwt>0</asrwt>
<pdfrwt beam="1">  1       21 0.28344860E-02 0.12500000E+03</pdfrwt>
<pdfrwt beam="2">  1       21 0.32618126E-01 0.12500000E+03</pdfrwt>
<totfact> 0.61770022E+06</totfact>
</mgrwt>
</event>
<event>
 3      1 +1.7592000e+01 1.25000000e+02 7.54677100e-03 1.23506900e-01
       21 -1    0    0  502  501 +0.0000000000e+00 +0.0000000000e+00 +1.4890589027e+02 1.4890589027e+02 0.0000000000e+00 0.0000e+00 1.0000e+00
       21 -1    0    0  501  502 -0.0000000000e+00 -0.0000000000e+00 -2.6233011958e+01 2.6233011958e+01 0.0000000000e+00 0.0000e+00 1.0000e+00
       25  1    1    2    0    0 +0.0000000000e+00 +0.0000000000e+00 +1.2267287831e+02 1.7513890222e+02 1.2500000000e+02 0.0000e+00 0.0000e+00
<mgrwt>
<rscale>  0 0.12500000E+03</rscale>
<asrwt>0</asrwt>
<pdfrwt beam="1">  1       21 0.22908598E-01 0.12500000E+03</pdfrwt>
<pdfrwt beam="2">  1       21 0.40358481E-02 0.12500000E+03</pdfrwt>
<totfact> 0.67713609E+06</totfact>
</mgrwt>
</event>
<event>
 3      1 +1.7592000e+01 1.25000000e+02 7.54677100e-03 1.23506900e-01
       21 -1    0    0  502  501 +0.0000000000e+00 +0.0000000000e+00 +4.6884019792e+01 4.6884019792e+01 0.0000000000e+00 0.0000e+00 1.0000e+00
       21 -1    0    0  501  502 -0.0000000000e+00 -0.0000000000e+00 -8.3317301232e+01 8.3317301232e+01 0.0000000000e+00 0.0000e+00 1.0000e+00
       25  1    1    2    0    0 +0.0000000000e+00 +0.0000000000e+00 -3.6433281440e+01 1.3020132102e+02 1.2500000000e+02 0.0000e+00 0.0000e+00
<mgrwt>
<rscale>  0 0.12500000E+03</rscale>
<asrwt>0</asrwt>
<pdfrwt beam="1">  1       21 0.72129262E-02 0.12500000E+03</pdfrwt>
<pdfrwt beam="2">  1       21 0.12818046E-01 0.12500000E+03</pdfrwt>
<totfact> 0.73338021E+06</totfact>
</mgrwt>
</event>
<event>
 3      1 +1.7592000e+01 1.25000000e+02 7.54677100e-03 1.23506900e-01
       21 -1    0    0  502  501 +0.0000000000e+00 +0.0000000000e+00 +1.5259288873e+02 1.5259288873e+02 0.0000000000e+00 0.0000e+00 1.0000e+00
       21 -1    0    0  501  502 -0.0000000000e+00 -0.0000000000e+00 -2.5599161485e+01 2.5599161485e+01 0.0000000000e+00 0.0000e+00 1.0000e+00
       25  1    1    2    0    0 +0.0000000000e+00 +0.0000000000e+00 +1.2699372724e+02 1.7819205021e+02 1.2500000000e+02 0.0000e+00 0.0000e+00
<mgrwt>
<rscale>  0 0.12500000E+03</rscale>
<asrwt>0</asrwt>
<pdfrwt beam="1">  1       21 0.23475828E-01 0.12500000E+03</pdfrwt>
<pdfrwt beam="2">  1       21 0.39383326E-02 0.12500000E+03</pdfrwt>
<totfact> 0.67359546E+06</totfact>
</mgrwt>
</event>
<event>
 3      1 +1.7592000e+01 1.25000000e+02 7.54677100e-03 1.23506900e-01
       21 -1    0    0  502  501 +0.0000000000e+00 +0.0000000000e+00 +1.6321659111e+01 1.6321659111e+01 0.0000000000e+00 0.0000e+00 -1.0000e+00
       21 -1    0    0  501  502 -0.0000000000e+00 -0.0000000000e+00 -2.3932922342e+02 2.3932922342e+02 0.0000000000e+00 0.0000e+00 -1.0000e+00
       25  1    1    2    0    0 +0.0000000000e+00 +0.0000000000e+00 -2.2300756431e+02 2.5565088254e+02 1.2500000000e+02 0.0000e+00 0.0000e+00
<mgrwt>
<rscale>  0 0.12500000E+03</rscale>
<asrwt>0</asrwt>
<pdfrwt beam="1">  1       21 0.25110246E-02 0.12500000E+03</pdfrwt>
<pdfrwt beam="2">  1       21 0.36819879E-01 0.12500000E+03</pdfrwt>
<totfact> 0.59350210E+06</totfact>
</mgrwt>
</event>
<event>
 3      1 +1.7592000e+01 1.25000000e+02 7.54677100e-03 1.23506900e-01
       21 -1    0    0  502  501 +0.0000000000e+00 +0.0000000000e+00 +3.8485539380e+00 3.8485539380e+00 0.0000000000e+00 0.0000e+00 1.0000e+00
       21 -1    0    0  501  502 -0.0000000000e+00 -0.0000000000e+00 -1.0149916210e+03 1.0149916210e+03 0.0000000000e+00 0.0000e+00 1.0000e+00
       25  1    1    2    0    0 +0.0000000000e+00 +0.0000000000e+00 -1.0111430671e+03 1.0188401749e+03 1.2500000000e+02 0.0000e+00 0.0000e+00
<mgrwt>
<rscale>  0 0.12500000E+03</rscale>
<asrwt>0</asrwt>
<pdfrwt beam="1">  1       21 0.59208560E-03 0.12500000E+03</pdfrwt>
<pdfrwt beam="2">  1       21 0.15615246E+00 0.12500000E+03</pdfrwt>
<totfact> 0.23152028E+06</totfact>
</mgrwt>
</event>
<event>
 3      1 +1.7592000e+01 1.25000000e+02 7.54677100e-03 1.23506900e-01
       21 -1    0    0  502  501 +0.0000000000e+00 +0.0000000000e+00 +4.6750471900e+02 4.6750471900e+02 0.0000000000e+00 0.0000e+00 1.0000e+00
       21 -1    0    0  501  502 -0.0000000000e+00 -0.0000000000e+00 -8.3555306315e+00 8.3555306315e+00 0.0000000000e+00 0.0000e+00 1.0000e+00
       25  1    1    2    0    0 +0.0000000000e+00 +0.0000000000e+00 +4.5914918837e+02 4.7586024963e+02 1.2500000000e+02 0.0000e+00 0.0000e+00
<mgrwt>
<rscale>  0 0.12500000E+03</rscale>
<asrwt>0</asrwt>
<pdfrwt beam="1">  1       21 0.71923782E-01 0.12500000E+03</pdfrwt>
<pdfrwt beam="2">  1       21 0.12854666E-02 0.12500000E+03</pdfrwt>
<totfact> 0.43384232E+06</totfact>
</mgrwt>
</event>
<event>
 3      1 +1.7592000e+01 1.25000000e+02 7.54677100e-03 1.23506900e-01
       21 -1    0    0  502  501 +0.0000000000e+00 +0.0000000000e+00 +5.8219407398e+00 5.8219407398e+00 0.0000000000e+00 0.0000e+00 -1.0000e+00
       21 -1    0    0  501  502 -0.0000000000e+00 -0.0000000000e+00 -6.7095323958e+02 6.7095323958e+02 0.0000000000e+00 0.0000e+00 -1.0000e+00
       25  1    1    2    0    0 +0.0000000000e+00 +0.0000000000e+00 -6.6513129884e+02 6.7677518032e+02 1.2500000000e+02 0.0000e+00 0.0000e+00
<mgrwt>
<rscale>  0 0.12500000E+03</rscale>
<asrwt>0</asrwt>
<pdfrwt beam="1">  1       21 0.89568365E-03 0.12500000E+03</pdfrwt>
<pdfrwt beam="2">  1       21 0.10322352E+00 0.12500000E+03</pdfrwt>
<totfact> 0.33824927E+06</totfact>
</mgrwt>
</event>
<event>
 3      1 +1.7592000e+01 1.25000000e+02 7.54677100e-03 1.23506900e-01
       21 -1    0    0  502  501 +0.0000000000e+00 +0.0000000000e+00 +2.1677605203e+02 2.1677605203e+02 0.0000000000e+00 0.0000e+00 1.0000e+00
       21 -1    0    0  501  502 -0.0000000000e+00 -0.0000000000e+00 -1.8019748784e+01 1.8019748784e+01 0.0000000000e+00 0.0000e+00 1.0000e+00
       25  1    1    2    0    0 +0.0000000000e+00 +0.0000000000e+00 +1.9875630325e+02 2.3479580081e+02 1.2500000000e+02 0.0000e+00 0.0000e+00
<mgrwt>
<rscale>  0 0.12500000E+03</rscale>
<asrwt>0</asrwt>
<pdfrwt beam="1">  1       21 0.33350160E-01 0.12500000E+03</pdfrwt>
<pdfrwt beam="2">  1       21 0.27722692E-02 0.12500000E+03</pdfrwt>
<totfact> 0.61339928E+06</totfact>
</mgrwt>
</event>
<event>
 3      1 +1.7592000e+01 1.25000000e+02 7.54677100e-03 1.23506900e-01
       21 -1    0    0  502  501 +0.0000000000e+00 +0.0000000000e+00 +1.6359350076e+03 1.6359350076e+03 0.0000000000e+00 0.0000e+00 1.0000e+00
       21 -1    0    0  501  502 -0.0000000000e+00 -0.0000000000e+00 -2.3877782319e+00 2.3877782319e+00 0.0000000000e+00 0.0000e+00 1.0000e+00
       25  1    1    2    0    0 +0.0000000000e+00 +0.0000000000e+00 +1.6335472294e+03 1.6383227858e+03 1.2500000000e+02 0.0000e+00 0.0000e+00
<mgrwt>
<rscale>  0 0.12500000E+03</rscale>
<asrwt>0</asrwt>
<pdfrwt beam="1">  1       21 0.25168141E+00 0.12500000E+03</pdfrwt>
<pdfrwt beam="2">  1       21 0.36735180E-03 0.12500000E+03</pdfrwt>
<totfact> 0.12060981E+06</totfact>
</mgrwt>
</event>
<event>
 3      1 +1.7592000e+01 1.25000000e+02 7.54677100e-03 1.23506900e-01
       21 -1    0    0  502  501 +0.0000000000e+00 +0.0000000000e+00 +1.4386788229e+02 1.4386788229e+02 0.0000000000e+00 0.0000e+00 1.0000e+00
       21 -1    0    0  501  502 -0.0000000000e+00 -0.0000000000e+00 -2.7151647316e+01 2.7151647316e+01 0.0000000000e+00 0.0000e+00 1.0000e+00
       25  1    1    2    0    0 +0.0000000000e+00 +0.0000000000e+00 +1.1671623497e+02 1.7101952960e+02 1.2500000000e+02 0.0000e+00 0.0000e+00
<mgrwt>
<rscale>  0 0.12500000E+03</rscale>
<asrwt>0</asrwt>
<pdfrwt beam="1">  1       21 0.22133520E-01 0.12500000E+03</pdfrwt>
<pdfrwt beam="2">  1       21 0.41771766E-02 0.12500000E+03</pdfrwt>
<totfact> 0.68196982E+06</totfact>
</mgrwt>
</event>
<event>
 3      1 +1.7592000e+01 1.25000000e+02 7.54677100e-03 1.23506900e-01
       21 -1    0    0  502  501 +0.0000000000e+00 +0.0000000000e+00 +2.3638382328e+02 2.3638382328e+02 0.0000000000e+00 0.0000e+00 -1.0000e+00
       21 -1    0    0  501  502 -0.0000000000e+00 -0.0000000000e+00 -1.6525030968e+01 1.6525030968e+01 0.0000000000e+00 0.0000e+00 -1.0000e+00
       25  1    1    2    0    0 +0.0000000000e+00 +0.0000000000e+00 +2.1985879231e+02 2.5290885424e+02 1.2500000000e+02 0.0000e+00 0.0000e+00
<mgrwt>
<rscale>  0 0.12500000E+03</rscale>
<asrwt>0</asrwt>
<pdfrwt beam="1">  1       21 0.36366740E-01 0.12500000E+03</pdfrwt>
<pdfrwt beam="2">  1       21 0.25423126E-02 0.12500000E+03</pdfrwt>
<totfact> 0.59605402E+06</totfact>
</mgrwt>
</event>
<event>
 3      1 +1.7592000e+01 1.25000000e+02 7.54677100e-03 1.23506900e-01
       21 -1    0    0  502  501 +0.0000000000e+00 +0.0000000000e+00 +4.8627223343e+01 4.8627223343e+01 0.0000000000e+00 0.0000e+00 1.0000e+00
       21 -1    0    0  501  502 -0.0000000000e+00 -0.0000000000e+00 -8.0330517177e+01 8.0330517177e+01 0.0000000000e+00 0.0000e+00 1.0000e+00
       25  1    1    2    0    0 +0.0000000000e+00 +0.0000000000e+00 -3.1703293834e+01 1.2895774052e+02 1.2500000000e+02 0.0000e+00 0.0000e+00
<mgrwt>
<rscale>  0 0.12500000E+03</rscale>
<asrwt>0</asrwt>
<pdfrwt beam="1">  1       21 0.74811113E-02 0.12500000E+03</pdfrwt>
<pdfrwt beam="2">  1       21 0.12358541E-01 0.12500000E+03</pdfrwt>
<totfact> 0.73504557E+06</totfact>
</mgrwt>
</event>
<event>
 3      1 +1.7592000e+01 1.25000000e+02 7.54677100e-03 1.23506900e-01
       21 -1    0    0  502  501 +0.0000000000e+00 +0.0000000000e+00 +1.4118297238e+02 1.4118297238e+02 0.0000000000e+00 0.0000e+00 1.0000e+00
       21 -1    0    0  501  502 -0.0000000000e+00 -0.0000000000e+00 -2.7667996601e+01 2.7667996601e+01 0.0000000000e+00 0.0000e+00 1.0000e+00
       25  1    1    2    0    0 +0.0000000000e+00 +0.0000000000e+00 +1.1351497578e+02 1.6885096898e+02 1.2500000000e+02 0.0000e+00 0.0000e+00
<mgrwt>
<rscale>  0 0.12500000E+03</rscale>
<asrwt>0</asrwt>
<pdfrwt beam="1">  1       21 0.21720457E-01 0.12500000E+03</pdfrwt>
<pdfrwt beam="2">  1       21 0.42566149E-02 0.12500000E+03</pdfrwt>
<totfact> 0.68453850E+06</totfact>
</mgrwt>
</event>
<event>
 3      1 +1.7592000e+01 1.25000000e+02 7.54677100e-03 1.23506900e-01
       21 -1    0    0  502  501 +0.0000000000e+00 +0.0000000000e+00 +3.0543312670e+02 3.0543312670e+02 0.0000000000e+00 0.0000e+00 1.0000e+00
       21 -1    0    0  501  502 -0.0000000000e+00 -0.0000000000e+00 -1.2789215244e+01 1.2789215244e+01 0.0000000000e+00 0.0000e+00 1.0000e+00
       25  1    1    2    0    0 +0.0000000000e+00 +0.0000000000e+00 +2.9264391145e+02 3.1822234194e+02 1.2500000000e+02 0.0000e+00 0.0000e+00
<mgrwt>
<rscale>  0 0.12500000E+03</rscale>
<asrwt>0</asrwt>
<pdfrwt beam="1">  1       21 0.46989706E-01 0.12500000E+03</pdfrwt>
<pdfrwt beam="2">  1       21 0.19675718E-02 0.12500000E+03</pdfrwt>
<totfact> 0.53974517E+06</totfact>
</mgrwt>
</event>
<event>
 3      1 +1.7592000e+01 1.25000000e+02 7.54677100e-03 1.23506900e-01
       21 -1    0    0  502  501 +0.0000000000e+00 +0.0000000000e+00 +4.9854137523e+02 4.9854137523e+02 0.0000000000e+00 0.0000e+00 1.0000e+00
       21 -1    0    0  501  502 -0.0000000000e+00 -0.0000000000e+00 -7.8353576936e+00 7.8353576936e+00 0.0000000000e+00 0.0000e+00 1.0000e+00
       25  1    1    2    0    0 +0.0000000000e+00 +0.0000000000e+00 +4.9070601754e+02 5.0637673293e+02 1.2500000000e+02 0.0000e+00 0.0000e+00
<mgrwt>
<rscale>  0 0.12500000E+03</rscale>
<asrwt>0</asrwt>
<pdfrwt beam="1">  1       21 0.76698648E-01 0.12500000E+03</pdfrwt>
<pdfrwt beam="2">  1       21 0.12054400E-02 0.12500000E+03</pdfrwt>
<totfact> 0.41700352E+06</totfact>
</mgrwt>
</event>
<event>
 3      1 +1.7592000e+01 1.25000000e+02 7.54677100e-03 1.23506900e-01
       21 -1    0    0  502  501 +0.0000000000e+00 +0.0000000000e+00 +1.4107445350e+01 1.4107445350e+01 0.0000000000e+00 0.0000e+00 -1.0000e+00
       21 -1    0    0  501  502 -0.0000000000e+00 -0.0000000000e+00 -2.7689279689e+02 2.7689279689e+02 0.0000000000e+00 0.0000e+00 -1.0000e+00
       25  1    1    2    0    0 +0.0000000000e+00 +0.0000000000e+00 -2.6278535154e+02 2.9100024224e+02 1.2500000000e+02 0.0000e+00 0.0000e+00
<mgrwt>
<rscale>  0 0.12500000E+03</rscale>
<asrwt>0</asrwt>
<pdfrwt beam="1">  1       21 0.21703763E-02 0.12500000E+03</pdfrwt>
<pdfrwt beam="2">  1       21 0.42598890E-01 0.12500000E+03</pdfrwt>
<totfact> 0.56212482E+06</totfact>
</mgrwt>
</event>
<event>
 3      1 +1.7592000e+01 1.25000000e+02 7.54677100e-03 1.23506900e-01
       21 -1    0    0  502  501 +0.0000000000e+00 +0.0000000000e+00 +1.2054195572e+02 1.2054195572e+02 0.0000000000e+00 0.0000e+00 -1.0000e+00
       21 -1    0    0  501  502 -0.0000000000e+00 -0.0000000000e+00 -3.2405729413e+01 3.2405729413e+01 0.0000000000e+00 0.0000e+00 -1.0000e+00
       25  1    1    2    0    0 +0.0000000000e+00 +0.0000000000e+00 +8.8136226309e+01 1.5294768513e+02 1.2500000000e+02 0.0000e+00 0.0000e+00
<mgrwt>
<rscale>  0 0.12500000E+03</rscale>
<asrwt>0</asrwt>
<pdfrwt beam="1">  1       21 0.18544916E-01 0.12500000E+03</pdfrwt>
<pdfrwt beam="2">  1       21 0.49854969E-02 0.12500000E+03</pdfrwt>
<totfact> 0.70390852E+06</totfact>
</mgrwt>
</event>
<event>
 3      1 +1.7592000e+01 1.25000000e+02 7.54677100e-03 1.23506900e-01
       21 -1    0    0  502  501 +0.0000000000e+00 +0.0000000000e+00 +6.2238833780e+01 6.2238833780e+01 0.0000000000e+00 0.0000e+00 1.0000e+00
       21 -1    0    0  501  502 -0.0000000000e+00 -0.0000000000e+00 -6.2762262124e+01 6.2762262124e+01 0.0000000000e+00 0.0000e+00 1.0000e+00
       25  1    1    2    0    0 +0.0000000000e+00 +0.0000000000e+00 -5.2342834397e-01 1.2500109590e+02 1.2500000000e+02 0.0000e+00 0.0000e+00
<mgrwt>
<rscale>  0 0.12500000E+03</rscale>
<asrwt>0</asrwt>
<pdfrwt beam="1">  1       21 0.95752052E-02 0.12500000E+03</pdfrwt>
<pdfrwt beam="2">  1       21 0.96557326E-02 0.12500000E+03</pdfrwt>
<totfact> 0.74043433E+06</totfact>
</mgrwt>
</event>
<event>
 3      1 +1.7592000e+01 1.25000000e+02 7.54677100e-03 1.23506900e-01
       21 -1    0    0  502  501 +0.0000000000e+00 +0.0000000000e+00 +7.3450492023e+01 7.3450492023e+01 0.0000000000e+00 0.0000e+00 -1.0000e+00
       21 -1    0    0  501  502 -0.0000000000e+00 -0.0000000000e+00 -5.3182080779e+01 5.3182080779e+01 0.0000000000e+00 0.0000e+00 -1.0000e+00
       25  1    1    2    0    0 +0.0000000000e+00 +0.0000000000e+00 +2.0268411244e+01 1.2663257280e+02 1.2500000000e+02 0.0000e+00 0.0000e+00
<mgrwt>
<rscale>  0 0.12500000E+03</rscale>
<asrwt>0</asrwt>
<pdfrwt beam="1">  1       21 0.11300076E-01 0.12500000E+03</pdfrwt>
<pdfrwt beam="2">  1       21 0.81818586E-02 0.12500000E+03</pdfrwt>
<totfact> 0.73819244E+06</totfact>
</mgrwt>
</event>
<event>
 3      1 +1.7592000e+01 1.25000000e+02 7.54677100e-03 1.23506900e-01
       21 -1    0    0  502  501 +0.0000000000e+00 +0.0000000000e+00 +2.3248177008e+01 2.3248177008e+01 0.0000000000e+00 0.0000e+00 -1.0000e+00
       21 -1    0    0  501  502 -0.0000000000e+00 -0.0000000000e+00 -1.6802392715e+02 1.6802392715e+02 0.0000000000e+00 0.0000e+00 -1.0000e+00
       25  1    1    2    0    0 +0.0000000000e+00 +0.0000000000e+00 -1.4477575015e+02 1.9127210416e+02 1.2500000000e+02 0.0000e+00 0.0000e+00
<mgrwt>
<rscale>  0 0.12500000E+03</rscale>
<asrwt>0</asrwt>
<pdfrwt beam="1">  1       21 0.35766426E-02 0.12500000E+03</pdfrwt>
<pdfrwt beam="2">  1       21 0.25849835E-01 0.12500000E+03</pdfrwt>
<totfact> 0.65881360E+06</totfact>
</mgrwt>
</event>
<event>
 3      1 +1.7592000e+01 1.25000000e+02 7.54677100e-03 1.23506900e-01
       21 -1    0    0  502  501 +0.0000000000e+00 +0.0000000000e+00 +2.1572669357e+00 2.1572669357e+00 0.0000000000e+00 0.0000e+00 -1.0000e+00
       21 -1    0    0  501  502 -0.0000000000e+00 -0.0000000000e+00 -1.8107402173e+03 1.8107402173e+03 0.0000000000e+00 0.0000e+00 -1.0000e+00
       25  1    1    2    0    0 +0.0000000000e+00 +0.0000000000e+00 -1.8085829504e+03 1.8128974843e+03 1.2500000000e+02 0.0000e+00 0.0000e+00
<mgrwt>
<rscale>  0 0.12500000E+03</rscale>
<asrwt>0</asrwt>
<pdfrwt beam="1">  1       21 0.33188863E-03 0.12500000E+03</pdfrwt>
<pdfrwt beam="2">  1       21 0.27857423E+00 0.12500000E+03</pdfrwt>
<totfact> 0.99223807E+05</totfact>
</mgrwt>
</event>
<event>
 3      1 +1.7592000e+01 1.25000000e+02 7.54677100e-03 1.23506900e-01
       21 -1    0    0  502  501 +0.0000000000e+00 +0.0000000000e+00 +1.7337324525e+01 1.7337324525e+01 0.0000000000e+00 0.0000e+00 -1.0000e+00
       21 -1    0    0  501  502 -0.0000000000e+00 -0.0000000000e+00 -2.2530869710e+02 2.2530869710e+02 0.0000000000e+00 0.0000e+00 -1.0000e+00
       25  1    1    2    0    0 +0.0000000000e+00 +0.0000000000e+00 -2.0797137258e+02 2.4264602163e+02 1.2500000000e+02 0.0000e+00 0.0000e+00
<mgrwt>
<rscale>  0 0.12500000E+03</rscale>
<asrwt>0</asrwt>
<pdfrwt beam="1">  1       21 0.26672809E-02 0.12500000E+03</pdfrwt>
<pdfrwt beam="2">  1       21 0.34662874E-01 0.12500000E+03</pdfrwt>
<totfact> 0.60577550E+06</totfact>
</mgrwt>
</event>
<event>
 3      1 +1.7592000e+01 1.25000000e+02 7.54677100e-03 1.23506900e-01
       21 -1    0    0  502  501 +0.0000000000e+00 +0.0000000000e+00 +2.0479578164e+01 2.0479578164e+01 0.0000000000e+00 0.0000e+00 -1.0000e+00
       21 -1    0    0  501  502 -0.0000000000e+00 -0.0000000000e+00 -1.9073879201e+02 1.9073879201e+02 0.0000000000e+00 0.0000e+00 -1.0000e+00
       25  1    1    2    0    0 +0.0000000000e+00 +0.0000000000e+00 -1.7025921385e+02 2.1121837018e+02 1.2500000000e+02 0.0000e+00 0.0000e+00
<mgrwt>
<rscale>  0 0.12500000E+03</rscale>
<asrwt>0</asrwt>
<pdfrwt beam="1">  1       21 0.31507043E-02 0.12500000E+03</pdfrwt>
<pdfrwt beam="2">  1       21 0.29344430E-01 0.12500000E+03</pdfrwt>
<totfact> 0.63731577E+06</totfact>
</mgrwt>
</event>
<event>
 3      1 +1.7592000e+01 1.25000000e+02 7.54677100e-03 1.23506900e-01
       21 -1    0    0  502  501 +0.0000000000e+00 +0.0000000000e+00 +1.1034978359e+02 1.1034978359e+02 0.0000000000e+00 0.0000e+00 -1.0000e+00
       21 -1    0    0  501  502 -0.0000000000e+00 -0.0000000000e+00 -3.5398800731e+01 3.5398800731e+01 0.0000000000e+00 0.0000e+00 -1.0000e+00
       25  1    1    2    0    0 +0.0000000000e+00 +0.0000000000e+00 +7.4950982859e+01 1.4574858432e+02 1.2500000000e+02 0.0000e+00 0.0000e+00
<mgrwt>
<rscale>  0 0.12500000E+03</rscale>
<asrwt>0</asrwt>
<pdfrwt beam="1">  1       21 0.16976890E-01 0.12500000E+03</pdfrwt>
<pdfrwt beam="2">  1       21 0.54459694E-02 0.12500000E+03</pdfrwt>
<totfact> 0.71297436E+06</totfact>
</mgrwt>
</event>
<event>
 3      1 +1.7592000e+01 1.25000000e+02 7.54677100e-03 1.23506900e-01
       21 -1    0    0  502  501 +0.0000000000e+00 +0.0000000000e+00 +5.7096735375e+01 5.7096735375e+01 0.0000000000e+00 0.0000e+00 -1.0000e+00
       21 -1    0    0  501  502 -0.0000000000e+00 -0.0000000000e+00 -6.8414594536e+01 6.8414594536e+01 0.0000000000e+00 0.0000e+00 -1.0000e+00
       25  1    1    2    0    0 +0.0000000000e+00 +0.0000000000e+00 -1.1317859162e+01 1.2551132991e+02 1.2500000000e+02 0.0000e+00 0.0000e+00
<mgrwt>
<rscale>  0 0.12500000E+03</rscale>
<asrwt>0</asrwt>
<pdfrwt beam="1">  1       21 0.87841131E-02 0.12500000E+03</pdfrwt>
<pdfrwt beam="2">  1       21 0.10525322E-01 0.12500000E+03</pdfrwt>
<totfact> 0.73973813E+06</totfact>
</mgrwt>
</event>
<event>
 3      1 +1.7592000e+01 1.25000000e+02 7.54677100e-03 1.23506900e-01
       21 -1    0    0  502  501 +0.0000000000e+00 +0.0000000000e+00 +1.7451609979e+01 1.7451609979e+01 0.0000000000e+00 0.0000e+00 1.0000e+00
       21 -1    0    0  501  502 -0.0000000000e+00 -0.0000000000e+00 -2.2383321680e+02 2.2383321680e+02 0.0000000000e+00 0.0000e+00 1.0000e+00
       25  1    1    2    0    0 +0.0000000000e+00 +0.0000000000e+00 -2.0638160682e+02 2.4128482678e+02 1.2500000000e+02 0.0000e+00 0.0000e+00
<mgrwt>
<rscale>  0 0.12500000E+03</rscale>
<asrwt>0</asrwt>
<pdfrwt beam="1">  1       21 0.26848633E-02 0.12500000E+03</pdfrwt>
<pdfrwt beam="2">  1       21 0.34435876E-01 0.12500000E+03</pdfrwt>
<totfact> 0.60708556E+06</totfact>
</mgrwt>
</event>
<event>
 3      1 +1.7592000e+01 1.25000000e+02 7.54677100e-03 1.23506900e-01
       21 -1    0    0  502  501 +0.0000000000e+00 +0.0000000000e+00 +3.6426783632e+01 3.6426783632e+01 0.0000000000e+00 0.0000e+00 1.0000e+00
       21 -1    0    0  501  502 -0.0000000000e+00 -0.0000000000e+00 -1.0723565494e+02 1.0723565494e+02 0.0000000000e+00 0.0000e+00 1.0000e+00
       25  1    1    2    0    0 +0.0000000000e+00 +0.0000000000e+00 -7.0808871303e+01 1.4366243857e+02 1.2500000000e+02 0.0000e+00 0.0000e+00
<mgrwt>
<rscale>  0 0.12500000E+03</rscale>
<asrwt>0</asrwt>
<pdfrwt beam="1">  1       21 0.56041206E-02 0.12500000E+03</pdfrwt>
<pdfrwt beam="2">  1       21 0.16497793E-01 0.12500000E+03</pdfrwt>
<totfact> 0.71564716E+06</totfact>
</mgrwt>
</event>
<event>
 3      1 +1.7592000e+01 1.25000000e+02 7.54677100e-03 1.23506900e-01
       21 -1    0    0  502  501 +0.0000000000e+00 +0.0000000000e+00 +3.3992407681e+01 3.3992407681e+01 0.0000000000e+00 0.0000e+00 -1.0000e+00
       21 -1    0    0  501  502 -0.0000000000e+00 -0.0000000000e+00 -1.1491536689e+02 1.1491536689e+02 0.0000000000e+00 0.0000e+00 -1.0000e+00
       25  1    1    2    0    0 +0.0000000000e+00 +0.0000000000e+00 -8.0922959207e+01 1.4890777457e+02 1.2500000000e+02 0.0000e+00 0.0000e+00
<mgrwt>
<rscale>  0 0.12500000E+03</rscale>
<asrwt>0</asrwt>
<pdfrwt beam="1">  1       21 0.52296011E-02 0.12500000E+03</pdfrwt>
<pdfrwt beam="2">  1       21 0.17679287E-01 0.12500000E+03</pdfrwt>
<totfact> 0.70896675E+06</totfact>
</mgrwt>
</event>
<event>
 3      1 +1.7592000e+01 1.25000000e+02 7.54677100e-03 1.23506900e-01
       21 -1    0    0  502  501 +0.0000000000e+00 +0.0000000000e+00 +5.1131760975e+01 5.1131760975e+01 0.0000000000e+00 0.0000e+00 1.0000e+00
       21 -1    0    0  501  502 -0.0000000000e+00 -0.0000000000e+00 -7.6395765088e+01 7.6395765088e+01 0.0000000000e+00 0.0000e+00 1.0000e+00
       25  1    1    2    0    0 +0.0000000000e+00 +0.0000000000e+00 -2.5264004113e+01 1.2752752606e+02 1.2500000000e+02 0.0000e+00 0.0000e+00
<mgrwt>
<rscale>  0 0.12500000E+03</rscale>
<asrwt>0</asrwt>
<pdfrwt beam="1">  1       21 0.78664248E-02 0.12500000E+03</pdfrwt>
<pdfrwt beam="2">  1       21 0.11753195E-01 0.12500000E+03</pdfrwt>
<totfact> 0.73697487E+06</totfact>
</mgrwt>
</event>
<event>
 3      1 +1.7592000e+01 1.25000000e+02 7.54677100e-03 1.23506900e-01
       21 -1    0    0  502  501 +0.0000000000e+00 +0.0000000000e+00 +1.7633524593e+01 1.7633524593e+01 0.0000000000e+00 0.0000e+00 -1.0000e+00
       21 -1    0    0  501  502 -0.0000000000e+00 -0.0000000000e+00 -2.2152406227e+02 2.2152406227e+02 0.0000000000e+00 0.0000e+00 -1.0000e+00
       25  1    1    2    0    0 +0.0000000000e+00 +0.0000000000e+00 -2.0389053768e+02 2.3915758687e+02 1.2500000000e+02 0.0000e+00 0.0000e+00
<mgrwt>
<rscale>  0 0.12500000E+03</rscale>
<asrwt>0</asrwt>
<pdfrwt beam="1">  1       21 0.27128501E-02 0.12500000E+03</pdfrwt>
<pdfrwt beam="2">  1       21 0.34080623E-01 0.12500000E+03</pdfrwt>
<totfact> 0.60914277E+06</totfact>
</mgrwt>
</event>
<event>
 3      1 +1.7592000e+01 1.25000000e+02 7.54677100e-03 1.23506900e-01
       21 -1    0    0  502  501 +0.0000000000e+00 +0.0000000000e+00 +5.1180490358e+00 5.1180490358e+00 0.0000000000e+00 0.0000e+00 -1.0000e+00
       21 -1    0    0  501  502 -0.0000000000e+00 -0.0000000000e+00 -7.6323028027e+02 7.6323028027e+02 0.0000000000e+00 0.0000e+00 -1.0000e+00
       25  1    1    2    0    0 +0.0000000000e+00 +0.0000000000e+00 -7.5811223124e+02 7.6834832931e+02 1.2500000000e+02 0.0000e+00 0.0000e+00
<mgrwt>
<rscale>  0 0.12500000E+03</rscale>
<asrwt>0</asrwt>
<pdfrwt beam="1">  1       21 0.78739256E-03 0.12500000E+03</pdfrwt>
<pdfrwt beam="2">  1       21 0.11741998E+00 0.12500000E+03</pdfrwt>
<totfact> 0.30433789E+06</totfact>
</mgrwt>
</event>
<event>
 3      1 +1.7592000e+01 1.25000000e+02 7.54677100e-03 1.23506900e-01
       21 -1    0    0  502  501 +0.0000000000e+00 +0.0000000000e+00 +9.4483681160e+00 9.4483681160e+00 0.0000000000e+00 0.0000e+00 -1.0000e+00
       21 -1    0    0  501  502 -0.0000000000e+00 -0.0000000000e+00 -4.1343118219e+02 4.1343118219e+02 0.0000000000e+00 0.0000e+00 -1.0000e+00
       25  1    1    2    0    0 +0.0000000000e+00 +0.0000000000e+00 -4.0398281408e+02 4.2287955031e+02 1.2500000000e+02 0.0000e+00 0.0000e+00
<mgrwt>
<rscale>  0 0.12500000E+03</rscale>
<asrwt>0</asrwt>
<pdfrwt beam="1">  1       21 0.14535952E-02 0.12500000E+03</pdfrwt>
<pdfrwt beam="2">  1       21 0.63604794E-01 0.12500000E+03</pdfrwt>
<totfact> 0.46559901E+06</totfact>
</mgrwt>
</event>
<event>
 3      1 +1.7592000e+01 1.25000000e+02 7.54677100e-03 1.23506900e-01
       21 -1    0    0  502  501 +0.0000000000e+00 +0.0000000000e+00 +7.7160960779e+01 7.7160960779e+01 0.0000000000e+00 0.0000e+00 1.0000e+00
       21 -1    0    0  501  502 -0.0000000000e+00 -0.0000000000e+00 -5.0624693635e+01 5.0624693635e+01 0.0000000000e+00 0.0000e+00 1.0000e+00
       25  1    1    2    0    0 +0.0000000000e+00 +0.0000000000e+00 +2.6536267144e+01 1.2778565441e+02 1.2500000000e+02 0.0000e+00 0.0000e+00
<mgrwt>
<rscale>  0 0.12500000E+03</rscale>
<asrwt>0</asrwt>
<pdfrwt beam="1">  1       21 0.11870917E-01 0.12500000E+03</pdfrwt>
<pdfrwt beam="2">  1       21 0.77884144E-02 0.12500000E+03</pdfrwt>
<totfact> 0.73662535E+06</totfact>
</mgrwt>
</event>
<event>
 3      1 +1.7592000e+01 1.25000000e+02 7.54677100e-03 1.23506900e-01
       21 -1    0    0  502  501 +0.0000000000e+00 +0.0000000000e+00 +1.7801887335e+01 1.7801887335e+01 0.0000000000e+00 0.0000e+00 1.0000e+00
       21 -1    0    0  501  502 -0.0000000000e+00 -0.0000000000e+00 -2.1942898113e+02 2.1942898113e+02 0.0000000000e+00 0.0000e+00 1.0000e+00
       25  1    1    2    0    0 +0.0000000000e+00 +0.0000000000e+00 -2.0162709379e+02 2.3723086846e+02 1.2500000000e+02 0.0000e+00 0.0000e+00
<mgrwt>
<rscale>  0 0.12500000E+03</rscale>
<asrwt>0</asrwt>
<pdfrwt beam="1">  1       21 0.27387518E-02 0.12500000E+03</pdfrwt>
<pdfrwt beam="2">  1       21 0.33758306E-01 0.12500000E+03</pdfrwt>
<totfact> 0.61101659E+06</totfact>
</mgrwt>
</event>
<event>
 3      1 +1.7592000e+01 1.25000000e+02 7.54677100e-03 1.23506900e-01
       21 -1    0    0  502  501 +0.0000000000e+00 +0.0000000000e+00 +1.1903398128e+03 1.1903398128e+03 0.0000000000e+00 0.0000e+00 1.0000e+00
       21 -1    0    0  501  502 -0.0000000000e+00 -0.0000000000e+00 -3.2816259342e+00 3.2816259342e+00 0.0000000000e+00 0.0000e+00 1.0000e+00
       25  1    1    2    0    0 +0.0000000000e+00 +0.0000000000e+00 +1.1870581868e+03 1.1936214387e+03 1.2500000000e+02 0.0000e+00 0.0000e+00
<mgrwt>
<rscale>  0 0.12500000E+03</rscale>
<asrwt>0</asrwt>
<pdfrwt beam="1">  1       21 0.18312886E+00 0.12500000E+03</pdfrwt>
<pdfrwt beam="2">  1       21 0.50486648E-03 0.12500000E+03</pdfrwt>
<totfact> 0.19270989E+06</totfact>
</mgrwt>
</event>
<event>
 3      1 +1.7592000e+01 1.25000000e+02 7.54677100e-03 1.23506900e-01
       21 -1    0    0  502  501 +0.0000000000e+00 +0.0000000000e+00 +1.1925462275e+02 1.1925462275e+02 0.0000000000e+00 0.0000e+00 1.0000e+00
       21 -1    0    0  501  502 -0.0000000000e+00 -0.0000000000e+00 -3.2755543643e+01 3.2755543643e+01 0.0000000000e+00 0.0000e+00 1.0000e+00
       25  1    1    2    0    0 +0.0000000000e+00 +0.0000000000e+00 +8.6499079105e+01 1.5201016639e+02 1.2500000000e+02 0.0000e+00 0.0000e+00
<mgrwt>
<rscale>  0 0.12500000E+03</rscale>
<asrwt>0</asrwt>
<pdfrwt beam="1">  1       21 0.18346865E-01 0.12500000E+03</pdfrwt>
<pdfrwt beam="2">  1       21 0.50393145E-02 0.12500000E+03</pdfrwt>
<totfact> 0.70507592E+06</totfact>
</mgrwt>
</event>
<event>
 3      1 +1.7592000e+01 1.25000000e+02 7.54677100e-03 1.23506900e-01
       21 -1    0    0  502  501 +0.0000000000e+00 +0.0000000000e+00 +2.8994457548e+01 2.8994457548e+01 0.0000000000e+00 0.0000e+00 1.0000e+00
       21 -1    0    0  501  502 -0.0000000000e+00 -0.0000000000e+00 -1.3472402419e+02 1.3472402419e+02 0.0000000000e+00 0.0000e+00 1.0000e+00
       25  1    1    2    0    0 +0.0000000000e+00 +0.0000000000e+00 -1.0572956664e+02 1.6371848173e+02 1.2500000000e+02 0.0000e+00 0.0000e+00
<mgrwt>
<rscale>  0 0.12500000E+03</rscale>
<asrwt>0</asrwt>
<pdfrwt beam="1">  1       21 0.44606857E-02 0.12500000E+03</pdfrwt>
<pdfrwt beam="2">  1       21 0.20726773E-01 0.12500000E+03</pdfrwt>
<totfact> 0.69067968E+06</totfact>
</mgrwt>
</event>
<event>
 3      1 +1.7592000e+01 1.25000000e+02 7.54677100e-03 1.23506900e-01
       21 -1    0    0  502  501 +0.0000000000e+00 +0.0000000000e+00 +1.7200401484e+01 1.7200401484e+01 0.0000000000e+00 0.0000e+00 1.0000e+00
       21 -1    0    0  501  502 -0.0000000000e+00 -0.0000000000e+00 -2.2710225710e+02 2.2710225710e+02 0.0000000000e+00 0.0000e+00 1.0000e+00
       25  1    1    2    0    0 +0.0000000000e+00 +0.0000000000e+00 -2.0990185561e+02 2.4430265858e+02 1.2500000000e+02 0.0000e+00 0.0000e+00
<mgrwt>
<rscale>  0 0.12500000E+03</rscale>
<asrwt>0</asrwt>
<pdfrwt beam="1">  1       21 0.26462157E-02 0.12500000E+03</pdfrwt>
<pdfrwt beam="2">  1       21 0.34938807E-01 0.12500000E+03</pdfrwt>
<totfact> 0.60418772E+06</totfact>
</mgrwt>
</event>
<event>
 3      1 +1.7592000e+01 1.25000000e+02 7.54677100e-03 1.23506900e-01
       21 -1    0    0  502  501 +0.0000000000e+00 +0.0000000000e+00 +4.9960500054e+01 4.9960500054e+01 0.0000000000e+00 0.0000e+00 1.0000e+00
       21 -1    0    0  501  502 -0.0000000000e+00 -0.0000000000e+00 -7.8186767462e+01 7.8186767462e+01 0.0000000000e+00 0.0000e+00 1.0000e+00
       25  1    1    2    0    0 +0.0000000000e+00 +0.0000000000e+00 -2.8226267408e+01 1.2814726752e+02 1.2500000000e+02 0.0000e+00 0.0000e+00
<mgrwt>
<rscale>  0 0.12500000E+03</rscale>
<asrwt>0</asrwt>
<pdfrwt beam="1">  1       21 0.76862308E-02 0.12500000E+03</pdfrwt>
<pdfrwt beam="2">  1       21 0.12028733E-01 0.12500000E+03</pdfrwt>
<totfact> 0.73613675E+06</totfact>
</mgrwt>
</event>
<event>
 3      1 +1.7592000e+01 1.25000000e+02 7.54677100e-03 1.23506900e-01
       21 -1    0    0  502  501 +0.0000000000e+00 +0.0000000000e+00 +2.3743491474e+02 2.3743491474e+02 0.0000000000e+00 0.0000e+00 1.0000e+00
       21 -1    0    0  501  502 -0.0000000000e+00 -0.0000000000e+00 -1.6451876946e+01 1.6451876946e+01 0.0000000000e+00 0.0000e+00 1.0000e+00
       25  1    1    2    0    0 +0.0000000000e+00 +0.0000000000e+00 +2.2098303780e+02 2.5388679169e+02 1.2500000000e+02 0.0000e+00 0.0000e+00
<mgrwt>
<rscale>  0 0.12500000E+03</rscale>
<asrwt>0</asrwt>
<pdfrwt beam="1">  1       21 0.36528446E-01 0.12500000E+03</pdfrwt>
<pdfrwt beam="2">  1       21 0.25310582E-02 0.12500000E+03</pdfrwt>
<totfact> 0.59514173E+06</totfact>
</mgrwt>
</event>
<event>
 3      1 +1.7592000e+01 1.25000000e+02 7.54677100e-03 1.23506900e-01
       21 -1    0    0  502  501 +0.0000000000e+00 +0.0000000000e+00 +1.7306104405e+02 1.7306104405e+02 0.0000000000e+00 0.0000e+00 -1.0000e+00
       21 -1    0    0  501  502 -0.0000000000e+00 -0.0000000000e+00 -2.2571515280e+01 2.2571515280e+01 0.0000000000e+00 0.0000e+00 -1.0000e+00
       25  1    1    2    0    0 +0.0000000000e+00 +0.0000000000e+00 +1.5048952877e+02 1.9563255933e+02 1.2500000000e+02 0.0000e+00 0.0000e+00
<mgrwt>
<rscale>  0 0.12500000E+03</rscale>
<asrwt>0</asrwt>
<pdfrwt beam="1">  1       21 0.26624775E-01 0.12500000E+03</pdfrwt>
<pdfrwt beam="2">  1       21 0.34725409E-02 0.12500000E+03</pdfrwt>
<totfact> 0.65401858E+06</totfact>
</mgrwt>
</event>
<event>
 3      1 +1.7592000e+01 1.25000000e+02 7.54677100e-03 1.23506900e-01
       21 -1    0    0  502  501 +0.0000000000e+00 +0.0000000000e+00 +4.7162099529e+02 4.7162099529e+02 0.0000000000e+00 0.0000e+00 -1.0000e+00
       21 -1    0    0  501  502 -0.0000000000e+00 -0.0000000000e+00 -8.2826041228e+00 8.2826041228e+00 0.0000000000e+00 0.0000e+00 -1.0000e+00
       25  1    1    2    0    0 +0.0000000000e+00 +0.0000000000e+00 +4.6333839117e+02 4.7990359941e+02 1.2500000000e+02 0.0000e+00 0.0000e+00
<mgrwt>
<rscale>  0 0.12500000E+03</rscale>
<asrwt>0</asrwt>
<pdfrwt beam="1">  1       21 0.72557055E-01 0.12500000E+03</pdfrwt>
<pdfrwt beam="2">  1       21 0.12742472E-02 0.12500000E+03</pdfrwt>
<totfact> 0.43155349E+06</totfact>
</mgrwt>
</event>
<event>
 3      1 +1.7592000e+01 1.25000000e+02 7.54677100e-03 1.23506900e-01
       21 -1    0    0  502  501 +0.0000000000e+00 +0.0000000000e+00 +1.2061512570e+02 1.2061512570e+02 0.0000000000e+00 0.0000e+00 -1.0000e+00
       21 -1    0    0  501  502 -0.0000000000e+00 -0.0000000000e+00 -3.2386070796e+01 3.2386070796e+01 0.0000000000e+00 0.0000e+00 -1.0000e+00
       25  1    1    2    0    0 +0.0000000000e+00 +0.0000000000e+00 +8.8229054902e+01 1.5300119650e+02 1.2500000000e+02 0.0000e+00 0.0000e+00
<mgrwt>
<rscale>  0 0.12500000E+03</rscale>
<asrwt>0</asrwt>
<pdfrwt beam="1">  1       21 0.18556173E-01 0.12500000E+03</pdfrwt>
<pdfrwt beam="2">  1       21 0.49824725E-02 0.12500000E+03</pdfrwt>
<totfact> 0.70384201E+06</totfact>
</mgrwt>
</event>
<event>
 3      1 +1.7592000e+01 1.25000000e+02 7.54677100e-03 1.23506900e-01
       21 -1    0    0  502  501 +0.0000000000e+00 +0.0000000000e+00 +2.4214472781e+01 2.4214472781e+01 0.0000000000e+00 0.0000e+00 -1.0000e+00
       21 -1    0    0  501  502 -0.0000000000e+00 -0.0000000000e+00 -1.6131881273e+02 1.6131881273e+02 0.0000000000e+00 0.0000e+00 -1.0000e+00
       25  1    1    2    0    0 +0.0000000000e+00 +0.0000000000e+00 -1.3710433995e+02 1.8553328551e+02 1.2500000000e+02 0.0000e+00 0.0000e+00
<mgrwt>
<rscale>  0 0.12500000E+03</rscale>
<asrwt>0</asrwt>
<pdfrwt beam="1">  1       21 0.37253034E-02 0.12500000E+03</pdfrwt>
<pdfrwt beam="2">  1       21 0.24818280E-01 0.12500000E+03</pdfrwt>
<totfact> 0.66522374E+06</totfact>
</mgrwt>
</event>
<event>
 3      1 +1.7592000e+01 1.25000000e+02 7.54677100e-03 1.23506900e-01
       21 -1    0    0  502  501 +0.0000000000e+00 +0.0000000000e+00 +2.2709345449e+02 2.2709345449e+02 0.0000000000e+00 0.0000e+00 -1.0000e+00
       21 -1    0    0  501  502 -0.0000000000e+00 -0.0000000000e+00 -1.7201068207e+01 1.7201068207e+01 0.0000000000e+00 0.0000e+00 -1.0000e+00
       25  1    1    2    0    0 +0.0000000000e+00 +0.0000000000e+00 +2.0989238629e+02 2.4429452270e+02 1.2500000000e+02 0.0000e+00 0.0000e+00
<mgrwt>
<rscale>  0 0.12500000E+03</rscale>
<asrwt>0</asrwt>
<pdfrwt beam="1">  1       21 0.34937452E-01 0.12500000E+03</pdfrwt>
<pdfrwt beam="2">  1       21 0.26463183E-02 0.12500000E+03</pdfrwt>
<totfact> 0.60419550E+06</totfact>
</mgrwt>
</event>
<event>
 3      1 +1.7592000e+01 1.25000000e+02 7.54677100e-03 1.23506900e-01
       21 -1    0    0  502  501 +0.0000000000e+00 +0.0000000000e+00 +8.1739809980e+01 8.1739809980e+01 0.0000000000e+00 0.0000e+00 -1.0000e+00
       21 -1    0    0  501  502 -0.0000000000e+00 -0.0000000000e+00 -4.7788831427e+01 4.7788831427e+01 0.0000000000e+00 0.0000e+00 -1.0000e+00
       25  1    1    2    0    0 +0.0000000000e+00 +0.0000000000e+00 +3.3950978552e+01 1.2952864141e+02 1.2500000000e+02 0.0000e+00 0.0000e+00
<mgrwt>
<rscale>  0 0.12500000E+03</rscale>
<asrwt>0</asrwt>
<pdfrwt beam="1">  1       21 0.12575355E-01 0.12500000E+03</pdfrwt>
<pdfrwt beam="2">  1       21 0.73521279E-02 0.12500000E+03</pdfrwt>
<totfact> 0.73427980E+06</totfact>
</mgrwt>
</event>
<event>
 3      1 +1.7592000e+01 1.25000000e+02 7.54677100e-03 1.23506900e-01
       21 -1    0    0  502  501 +0.0000000000e+00 +0.0000000000e+00 +1.6318495287e+02 1.6318495287e+02 0.0000000000e+00 0.0000e+00 1.0000e+00
       21 -1    0    0  501  502 -0.0000000000e+00 -0.0000000000e+00 -2.3937562448e+01 2.3937562448e+01 0.0000000000e+00 0.0000e+00 1.0000e+00
       25  1    1    2    0    0 +0.0000000000e+00 +0.0000000000e+00 +1.3924739042e+02 1.8712251532e+02 1.2500000000e+02 0.0000e+00 0.0000e+00
<mgrwt>
<rscale>  0 0.12500000E+03</rscale>
<asrwt>0</asrwt>
<pdfrwt beam="1">  1       21 0.25105377E-01 0.12500000E+03</pdfrwt>
<pdfrwt beam="2">  1       21 0.36827020E-02 0.12500000E+03</pdfrwt>
<totfact> 0.66343707E+06</totfact>
</mgrwt>
</event>
<event>
 3      1 +1.7592000e+01 1.25000000e+02 7.54677100e-03 1.23506900e-01
       21 -1    0    0  502  501 +0.0000000000e+00 +0.0000000000e+00 +4.7726319793e+00 4.7726319793e+00 0.0000000000e+00 0.0000e+00 -1.0000e+00
       21 -1    0    0  501  502 -0.0000000000e+00 -0.0000000000e+00 -8.1846872269e+02 8.1846872269e+02 0.0000000000e+00 0.0000e+00 -1.0000e+00
       25  1    1    2    0    0 +0.0000000000e+00 +0.0000000000e+00 -8.1369609071e+02 8.2324135467e+02 1.2500000000e+02 0.0000e+00 0.0000e+00
<mgrwt>
<rscale>  0 0.12500000E+03</rscale>
<asrwt>0</asrwt>
<pdfrwt beam="1">  1       21 0.73425143E-03 0.12500000E+03</pdfrwt>
<pdfrwt beam="2">  1       21 0.12591820E+00 0.12500000E+03</pdfrwt>
<totfact> 0.28607131E+06</totfact>
</mgrwt>
</event>
<event>
 3      1 +1.7592000e+01 1.25000000e+02 7.54677100e-03 1.23506900e-01
       21 -1    0    0  502  501 +0.0000000000e+00 +0.0000000000e+00 +6.8574925997e+00 6.8574925997e+00 0.0000000000e+00 0.0000e+00 1.0000e+00
       21 -1    0    0  501  502 -0.0000000000e+00 -0.0000000000e+00 -5.6963240474e+02 5.6963240474e+02 0.0000000000e+00 0.0000e+00 1.0000e+00
       25  1    1    2    0    0 +0.0000000000e+00 +0.0000000000e+00 -5.6277491214e+02 5.7648989734e+02 1.2500000000e+02 0.0000e+00 0.0000e+00
<mgrwt>
<rscale>  0 0.12500000E+03</rscale>
<asrwt>0</asrwt>
<pdfrwt beam="1">  1       21 0.10549987E-02 0.12500000E+03</pdfrwt>
<pdfrwt beam="2">  1       21 0.87635771E-01 0.12500000E+03</pdfrwt>
<totfact> 0.38177892E+06</totfact>
</mgrwt>
</event>
<event>
 3      1 +1.7592000e+01 1.25000000e+02 7.54677100e-03 1.23506900e-01
       21 -1    0    0  502  501 +0.0000000000e+00 +0.0000000000e+00 +1.7699443024e+02 1.7699443024e+02 0.0000000000e+00 0.0000e+00 1.0000e+00
       21 -1    0    0  501  502 -0.0000000000e+00 -0.0000000000e+00 -2.2069903526e+01 2.2069903526e+01 0.0000000000e+00 0.0000e+00 1.0000e+00
       25  1    1    2    0    0 +0.0000000000e+00 +0.0000000000e+00 +1.5492452671e+02 1.9906433377e+02 1.2500000000e+02 0.0000e+00 0.0000e+00
<mgrwt>
<rscale>  0 0.12500000E+03</rscale>
<asrwt>0</asrwt>
<pdfrwt beam="1">  1       21 0.27229912E-01 0.12500000E+03</pdfrwt>
<pdfrwt beam="2">  1       21 0.33953699E-02 0.12500000E+03</pdfrwt>
<totfact> 0.65028779E+06</totfact>
</mgrwt>
</event>
<event>
 3      1 +1.7592000e+01 1.25000000e+02 7.54677100e-03 1.23506900e-01
       21 -1    0    0  502  501 +0.0000000000e+00 +0.0000000000e+00 +1.5150877132e+01 1.5150877132e+01 0.0000000000e+00 0.0000e+00 -1.0000e+00
       21 -1    0    0  501  502 -0.0000000000e+00 -0.0000000000e+00 -2.5782335676e+02 2.5782335676e+02 0.0000000000e+00 0.0000e+00 -1.0000e+00
       25  1    1    2    0    0 +0.0000000000e+00 +0.0000000000e+00 -2.4267247963e+02 2.7297423389e+02 1.2500000000e+02 0.0000e+00 0.0000e+00
<mgrwt>
<rscale>  0 0.12500000E+03</rscale>
<asrwt>0</asrwt>
<pdfrwt beam="1">  1       21 0.23309043E-02 0.12500000E+03</pdfrwt>
<pdfrwt beam="2">  1       21 0.39665129E-01 0.12500000E+03</pdfrwt>
<totfact> 0.57779659E+06</totfact>
</mgrwt>
</event>
<event>
 3      1 +1.7592000e+01 1.25000000e+02 7.54677100e-03 1.23506900e-01
       21 -1    0    0  502  501 +0.0000000000e+00 +0.0000000000e+00 +4.0480161894e+02 4.0480161894e+02 0.0000000000e+00 0.0000e+00 1.0000e+00
       21 -1    0    0  501  502 -0.0000000000e+00 -0.0000000000e+00 -9.6497884822e+00 9.6497884822e+00 0.0000000000e+00 0.0000e+00 1.0000e+00
       25  1    1    2    0    0 +0.0000000000e+00 +0.0000000000e+00 +3.9515183046e+02 4.1445140742e+02 1.2500000000e+02 0.0000e+00 0.0000e+00
<mgrwt>
<rscale>  0 0.12500000E+03</rscale>
<asrwt>0</asrwt>
<pdfrwt beam="1">  1       21 0.62277159E-01 0.12500000E+03</pdfrwt>
<pdfrwt beam="2">  1       21 0.14845832E-02 0.12500000E+03</pdfrwt>
<totfact> 0.47097353E+06</totfact>
</mgrwt>
</event>
<event>
 3      1 +1.7592000e+01 1.25000000e+02 7.54677100e-03 1.23506900e-01
       21 -1    0    0  502  501 +0.0000000000e+00 +0.0000000000e+00 +6.0217113349e+02 6.0217113349e+02 0.0000000000e+00 0.0000e+00 1.0000e+00
       21 -1    0    0  501  502 -0.0000000000e+00 -0.0000000000e+00 -6.4869433003e+00 6.4869433003e+00 0.0000000000e+00 0.0000e+00 1.0000e+00
       25  1    1    2    0    0 +0.0000000000e+00 +0.0000000000e+00 +5.9568419019e+02 6.0865807679e+02 1.2500000000e+02 0.0000e+00 0.0000e+00
<mgrwt>
<rscale>  0 0.12500000E+03</rscale>
<asrwt>0</asrwt>
<pdfrwt beam="1">  1       21 0.92641669E-01 0.12500000E+03</pdfrwt>
<pdfrwt beam="2">  1       21 0.99799175E-03 0.12500000E+03</pdfrwt>
<totfact> 0.36703998E+06</totfact>
</mgrwt>
</event>
<event>
 3      1 +1.7592000e+01 1.25000000e+02 7.54677100e-03 1.23506900e-01
       21 -1    0    0  502  501 +0.0000000000e+00 +0.0000000000e+00 +1.9388470153e+01 1.9388470153e+01 0.0000000000e+00 0.0000e+00 1.0000e+00
       21 -1    0    0  501  502 -0.0000000000e+00 -0.0000000000e+00 -2.0147283252e+02 2.0147283252e+02 0.0000000000e+00 0.0000e+00 1.0000e+00
       25  1    1    2    0    0 +0.0000000000e+00 +0.0000000000e+00 -1.8208436237e+02 2.2086130268e+02 1.2500000000e+02 0.0000e+00 0.0000e+00
<mgrwt>
<rscale>  0 0.12500000E+03</rscale>
<asrwt>0</asrwt>
<pdfrwt beam="1">  1       21 0.29828413E-02 0.12500000E+03</pdfrwt>
<pdfrwt beam="2">  1       21 0.30995823E-01 0.12500000E+03</pdfrwt>
<totfact> 0.62734605E+06</totfact>
</mgrwt>
</event>
<event>
 3      1 +1.7592000e+01 1.25000000e+02 7.54677100e-03 1.23506900e-01
       21 -1    0    0  502  501 +0.0000000000e+00 +0.0000000000e+00 +7.4822123353e+02 7.4822123353e+02 0.0000000000e+00 0.0000e+00 -1.0000e+00
       21 -1    0    0  501  502 -0.0000000000e+00 -0.0000000000e+00 -5.2207152443e+00 5.2207152443e+00 0.0000000000e+00 0.0000e+00 -1.0000e+00
       25  1    1    2    0    0 +0.0000000000e+00 +0.0000000000e+00 +7.4300051828e+02 7.5344194877e+02 1.2500000000e+02 0.0000e+00 0.0000e+00
<mgrwt>
<rscale>  0 0.12500000E+03</rscale>
<asrwt>0</asrwt>
<pdfrwt beam="1">  1       21 0.11511087E+00 0.12500000E+03</pdfrwt>
<pdfrwt beam="2">  1       21 0.80318755E-03 0.12500000E+03</pdfrwt>
<totfact> 0.30948189E+06</totfact>
</mgrwt>
</event>
<event>
 3      1 +1.7592000e+01 1.25000000e+02 7.54677100e-03 1.23506900e-01
       21 -1    0    0  502  501 +0.0000000000e+00 +0.0000000000e+00 +5.5784853945e+01 5.5784853945e+01 0.0000000000e+00 0.0000e+00 1.0000e+00
       21 -1    0    0  501  502 -0.0000000000e+00 -0.0000000000e+00 -7.0023487089e+01 7.0023487089e+01 0.0000000000e+00 0.0000e+00 1.0000e+00
       25  1    1    2    0    0 +0.0000000000e+00 +0.0000000000e+00 -1.4238633144e+01 1.2580834103e+02 1.2500000000e+02 0.0000e+00 0.0000e+00
<mgrwt>
<rscale>  0 0.12500000E+03</rscale>
<asrwt>0</asrwt>
<pdfrwt beam="1">  1       21 0.85822852E-02 0.12500000E+03</pdfrwt>
<pdfrwt beam="2">  1       21 0.10772844E-01 0.12500000E+03</pdfrwt>
<totfact> 0.73932517E+06</totfact>
</mgrwt>
</event>
<event>
 3      1 +1.7592000e+01 1.25000000e+02 7.54677100e-03 1.23506900e-01
       21 -1    0    0  502  501 +0.0000000000e+00 +0.0000000000e+00 +3.9653242203e+02 3.9653242203e+02 0.0000000000e+00 0.0000e+00 -1.0000e+00
       21 -1    0    0  501  502 -0.0000000000e+00 -0.0000000000e+00 -9.8510229756e+00 9.8510229756e+00 0.0000000000e+00 0.0000e+00 -1.0000e+00
       25  1    1    2    0    0 +0.0000000000e+00 +0.0000000000e+00 +3.8668139905e+02 4.0638344501e+02 1.2500000000e+02 0.0000e+00 0.0000e+00
<mgrwt>
<rscale>  0 0.12500000E+03</rscale>
<asrwt>0</asrwt>
<pdfrwt beam="1">  1       21 0.61004976E-01 0.12500000E+03</pdfrwt>
<pdfrwt beam="2">  1       21 0.15155423E-02 0.12500000E+03</pdfrwt>
<totfact> 0.47620811E+06</totfact>
</mgrwt>
</event>
<event>
 3      1 +1.7592000e+01 1.25000000e+02 7.54677100e-03 1.23506900e-01
       21 -1    0    0  502  501 +0.0000000000e+00 +0.0000000000e+00 +2.2036268866e+02 2.2036268866e+02 0.0000000000e+00 0.0000e+00 1.0000e+00
       21 -1    0    0  501  502 -0.0000000000e+00 -0.0000000000e+00 -1.7726458249e+01 1.7726458249e+01 0.0000000000e+00 0.0000e+00 1.0000e+00
       25  1    1    2    0    0 +0.0000000000e+00 +0.0000000000e+00 +2.0263623041e+02 2.3808914690e+02 1.2500000000e+02 0.0000e+00 0.0000e+00
<mgrwt>
<rscale>  0 0.12500000E+03</rscale>
<asrwt>0</asrwt>
<pdfrwt beam="1">  1       21 0.33901950E-01 0.12500000E+03</pdfrwt>
<pdfrwt beam="2">  1       21 0.27271476E-02 0.12500000E+03</pdfrwt>
<totfact> 0.61018064E+06</totfact>
</mgrwt>
</event>
<event>
 3      1 +1.7592000e+01 1.25000000e+02 7.54677100e-03 1.23506900e-01
       21 -1    0    0  502  501 +0.0000000000e+00 +0.0000000000e+00 +2.1184772979e+02 2.1184772979e+02 0.0000000000e+00 0.0000e+00 1.0000e+00
       21 -1    0    0  501  502 -0.0000000000e+00 -0.0000000000e+00 -1.8438951429e+01 1.8438951429e+01 0.0000000000e+00 0.0000e+00 1.0000e+00
       25  1    1    2    0    0 +0.0000000000e+00 +0.0000000000e+00 +1.9340877837e+02 2.3028668122e+02 1.2500000000e+02 0.0000e+00 0.0000e+00
<mgrwt>
<rscale>  0 0.12500000E+03</rscale>
<asrwt>0</asrwt>
<pdfrwt beam="1">  1       21 0.32591957E-01 0.12500000E+03</pdfrwt>
<pdfrwt beam="2">  1       21 0.28367619E-02 0.12500000E+03</pdfrwt>
<totfact> 0.61785462E+06</totfact>
</mgrwt>
</event>
<event>
 3      1 +1.7592000e+01 1.25000000e+02 7.54677100e-03 1.23506900e-01
       21 -1    0    0  502  501 +0.0000000000e+00 +0.0000000000e+00 +5.0727781551e+00 5.0727781551e+00 0.0000000000e+00 0.0000e+00 1.0000e+00
       21 -1    0    0  501  502 -0.0000000000e+00 -0.0000000000e+00 -7.7004155919e+02 7.7004155919e+02 0.0000000000e+00 0.0000e+00 1.0000e+00
       25  1    1    2    0    0 +0.0000000000e+00 +0.0000000000e+00 -7.6496878104e+02 7.7511433735e+02 1.2500000000e+02 0.0000e+00 0.0000e+00
<mgrwt>
<rscale>  0 0.12500000E+03</rscale>
<asrwt>0</asrwt>
<pdfrwt beam="1">  1       21 0.78042772E-03 0.12500000E+03</pdfrwt>
<pdfrwt beam="2">  1       21 0.11846788E+00 0.12500000E+03</pdfrwt>
<totfact> 0.30204053E+06</totfact>
</mgrwt>
</event>
<event>
 3      1 +1.7592000e+01 1.25000000e+02 7.54677100e-03 1.23506900e-01
       21 -1    0    0  502  501 +0.0000000000e+00 +0.0000000000e+00 +4.5754422969e+02 4.5754422969e+02 0.0000000000e+00 0.0000e+00 1.0000e+00
       21 -1    0    0  501  502 -0.0000000000e+00 -0.0000000000e+00 -8.5374259942e+00 8.5374259942e+00 0.0000000000e+00 0.0000e+00 1.0000e+00
       25  1    1    2    0    0 +0.0000000000e+00 +0.0000000000e+00 +4.4900680369e+02 4.6608165568e+02 1.2500000000e+02 0.0000e+00 0.0000e+00
<mgrwt>
<rscale>  0 0.12500000E+03</rscale>
<asrwt>0</asrwt>
<pdfrwt beam="1">  1       21 0.70391401E-01 0.12500000E+03</pdfrwt>
<pdfrwt beam="2">  1       21 0.13134505E-02 0.12500000E+03</pdfrwt>
<totfact> 0.43945365E+06</totfact>
</mgrwt>
</event>
<event>
 3      1 +1.7592000e+01 1.25000000e+02 7.54677100e-03 1.23506900e-01
       21 -1    0    0  502  501 +0.0000000000e+00 +0.0000000000e+00 +8.8692642268e+00 8.8692642268e+00 0.0000000000e+00 0.0000e+00 -1.0000e+00
       21 -1    0    0  501  502 -0.0000000000e+00 -0.0000000000e+00 -4.4042548515e+02 4.4042548515e+02 0.0000000000e+00 0.0000e+00 -1.0000e+00
       25  1    1    2    0    0 +0.0000000000e+00 +0.0000000000e+00 -4.3155622092e+02 4.4929474937e+02 1.2500000000e+02 0.0000e+00 0.0000e+00
<mgrwt>
<rscale>  0 0.12500000E+03</rscale>
<asrwt>0</asrwt>
<pdfrwt beam="1">  1       21 0.13645026E-02 0.12500000E+03</pdfrwt>
<pdfrwt beam="2">  1       21 0.67757748E-01 0.12500000E+03</pdfrwt>
<totfact> 0.44934507E+06</totfact>
</mgrwt>
</event>
<event>
 3      1 +1.7592000e+01 1.25000000e+02 7.54677100e-03 1.23506900e-01
       21 -1    0    0  502  501 +0.0000000000e+00 +0.0000000000e+00 +2.3936809196e+01 2.3936809196e+01 0.0000000000e+00 0.0000e+00 -1.0000e+00
       21 -1    0    0  501  502 -0.0000000000e+00 -0.0000000000e+00 -1.6319008804e+02 1.6319008804e+02 0.0000000000e+00 0.0000e+00 -1.0000e+00
       25  1    1    2    0    0 +0.0000000000e+00 +0.0000000000e+00 -1.3925327884e+02 1.8712689723e+02 1.2500000000e+02 0.0000e+00 0.0000e+00
<mgrwt>
<rscale>  0 0.12500000E+03</rscale>
<asrwt>0</asrwt>
<pdfrwt beam="1">  1       21 0.36825859E-02 0.12500000E+03</pdfrwt>
<pdfrwt beam="2">  1       21 0.25106168E-01 0.12500000E+03</pdfrwt>
<totfact> 0.66343215E+06</totfact>
</mgrwt>
</event>
<event>
 3      1 +1.7592000e+01 1.25000000e+02 7.54677100e-03 1.23506900e-01
       21 -1    0    0  502  501 +0.0000000000e+00 +0.0000000000e+00 +6.7184355421e+01 6.7184355421e+01 0.0000000000e+00 0.0000e+00 1.0000e+00
       21 -1    0    0  501  502 -0.0000000000e+00 -0.0000000000e+00 -5.8142256118e+01 5.8142256118e+01 0.0000000000e+00 0.0000e+00 1.0000e+00
       25  1    1    2    0    0 +0.0000000000e+00 +0.0000000000e+00 +9.0420993036e+00 1.2532661154e+02 1.2500000000e+02 0.0000e+00 0.0000e+00
<mgrwt>
<rscale>  0 0.12500000E+03</rscale>
<asrwt>0</asrwt>
<pdfrwt beam="1">  1       21 0.10336055E-01 0.12500000E+03</pdfrwt>
<pdfrwt beam="2">  1       21 0.89449625E-02 0.12500000E+03</pdfrwt>
<totfact> 0.73999479E+06</totfact>
</mgrwt>
</event>
<event>
 3      1 +1.7592000e+01 1.25000000e+02 7.54677100e-03 1.23506900e-01
       21 -1    0    0  502  501 +0.0000000000e+00 +0.0000000000e+00 +7.7713200277e+00 7.7713200277e+00 0.0000000000e+00 0.0000e+00 -1.0000e+00
       21 -1    0    0  501  502 -0.0000000000e+00 -0.0000000000e+00 -5.0264948375e+02 5.0264948375e+02 0.0000000000e+00 0.0000e+00 -1.0000e+00
       25  1    1    2    0    0 +0.0000000000e+00 +0.0000000000e+00 -4.9487816372e+02 5.1042080378e+02 1.2500000000e+02 0.0000e+00 0.0000e+00
<mgrwt>
<rscale>  0 0.12500000E+03</rscale>
<asrwt>0</asrwt>
<pdfrwt beam="1">  1       21 0.11955875E-02 0.12500000E+03</pdfrwt>
<pdfrwt beam="2">  1       21 0.77330703E-01 0.12500000E+03</pdfrwt>
<totfact> 0.41484503E+06</totfact>
</mgrwt>
</event>
<event>
 3      1 +1.7592000e+01 1.25000000e+02 7.54677100e-03 1.23506900e-01
       21 -1    0    0  502  501 +0.0000000000e+00 +0.0000000000e+00 +6.2426352730e+02 6.2426352730e+02 0.0000000000e+00 0.0000e+00 -1.0000e+00
       21 -1    0    0  501  502 -0.0000000000e+00 -0.0000000000e+00 -6.2573734156e+00 6.2573734156e+00 0.0000000000e+00 0.0000e+00 -1.0000e+00
       25  1    1    2    0    0 +0.0000000000e+00 +0.0000000000e+00 +6.1800615388e+02 6.3052090071e+02 1.2500000000e+02 0.0000e+00 0.0000e+00
<mgrwt>
<rscale>  0 0.12500000E+03</rscale>
<asrwt>0</asrwt>
<pdfrwt beam="1">  1       21 0.96040494E-01 0.12500000E+03</pdfrwt>
<pdfrwt beam="2">  1       21 0.96267333E-03 0.12500000E+03</pdfrwt>
<totfact> 0.35747765E+06</totfact>
</mgrwt>
</event>
<event>
 3      1 +1.7592000e+01 1.25000000e+02 7.54677100e-03 1.23506900e-01
       21 -1    0    0  502  501 +0.0000000000e+00 +0.0000000000e+00 +4.6676661153e+00 4.6676661153e+00 0.0000000000e+00 0.0000e+00 1.0000e+00
       21 -1    0    0  501  502 -0.0000000000e+00 -0.0000000000e+00 -8.3687434010e+02 8.3687434010e+02 0.0000000000e+00 0.0000e+00 1.0000e+00
       25  1    1    2    0    0 +0.0000000000e+00 +0.0000000000e+00 -8.3220667398e+02 8.4154200621e+02 1.2500000000e+02 0.0000e+00 0.0000e+00
<mgrwt>
<rscale>  0 0.12500000E+03</rscale>
<asrwt>0</asrwt>
<pdfrwt beam="1">  1       21 0.71810221E-03 0.12500000E+03</pdfrwt>
<pdfrwt beam="2">  1       21 0.12874995E+00 0.12500000E+03</pdfrwt>
<totfact> 0.28031863E+06</totfact>
</mgrwt>
</event>
<event>
 3      1 +1.7592000e+01 1.25000000e+02 7.54677100e-03 1.23506900e-01
       21 -1    0    0  502  501 +0.0000000000e+00 +0.0000000000e+00 +9.5055445884e+00 9.5055445884e+00 0.0000000000e+00 0.0000e+00 1.0000e+00
       21 -1    0    0  501  502 -0.0000000000e+00 -0.0000000000e+00 -4.1094436659e+02 4.1094436659e+02 0.0000000000e+00 0.0000e+00 1.0000e+00
       25  1    1    2    0    0 +0.0000000000e+00 +0.0000000000e+00 -4.0143882201e+02 4.2044991118e+02 1.2500000000e+02 0.0000e+00 0.0000e+00
<mgrwt>
<rscale>  0 0.12500000E+03</rscale>
<asrwt>0</asrwt>
<pdfrwt beam="1">  1       21 0.14623916E-02 0.12500000E+03</pdfrwt>
<pdfrwt beam="2">  1       21 0.63222207E-01 0.12500000E+03</pdfrwt>
<totfact> 0.46713867E+06</totfact>
</mgrwt>
</event>
<event>
 3      1 +1.7592000e+01 1.25000000e+02 7.54677100e-03 1.23506900e-01
       21 -1    0    0  502  501 +0.0000000000e+00 +0.0000000000e+00 +6.5945643762e+01 6.5945643762e+01 0.0000000000e+00 0.0000e+00 -1.0000e+00
       21 -1    0    0  501  502 -0.0000000000e+00 -0.0000000000e+00 -5.9234390282e+01 5.9234390282e+01 0.0000000000e+00 0.0000e+00 -1.0000e+00
       25  1    1    2    0    0 +0.0000000000e+00 +0.0000000000e+00 +6.7112534808e+00 1.2518003404e+02 1.2500000000e+02 0.0000e+00 0.0000e+00
<mgrwt>
<rscale>  0 0.12500000E+03</rscale>
<asrwt>0</asrwt>
<pdfrwt beam="1">  1       21 0.10145484E-01 0.12500000E+03</pdfrwt>
<pdfrwt beam="2">  1       21 0.91129831E-02 0.12500000E+03</pdfrwt>
<totfact> 0.74019268E+06</totfact>
</mgrwt>
</event>
<event>
 3      1 +1.7592000e+01 1.25000000e+02 7.54677100e-03 1.23506900e-01
       21 -1    0    0  502  501 +0.0000000000e+00 +0.0000000000e+00 +3.9258636296e+01 3.9258636296e+01 0.0000000000e+00 0.0000e+00 -1.0000e+00
       21 -1    0    0  501  502 -0.0000000000e+00 -0.0000000000e+00 -9.9500399619e+01 9.9500399619e+01 0.0000000000e+00 0.0000e+00 -1.0000e+00
       25  1    1    2    0    0 +0.0000000000e+00 +0.0000000000e+00 -6.0241763323e+01 1.3875903592e+02 1.2500000000e+02 0.0000e+00 0.0000e+00
<mgrwt>
<rscale>  0 0.12500000E+03</rscale>
<asrwt>0</asrwt>
<pdfrwt beam="1">  1       21 0.60397902E-02 0.12500000E+03</pdfrwt>
<pdfrwt beam="2">  1       21 0.15307754E-01 0.12500000E+03</pdfrwt>
<totfact> 0.72201730E+06</totfact>
</mgrwt>
</event>
<event>
 3      1 +1.7592000e+01 1.25000000e+02 7.54677100e-03 1.23506900e-01
       21 -1    0    0  502  501 +0.0000000000e+00 +0.0000000000e+00 +8.6561263684e+01 8.6561263684e+01 0.0000000000e+00 0.0000e+00 -1.0000e+00
       21 -1    0    0  501  502 -0.0000000000e+00 -0.0000000000e+00 -4.5126998310e+01 4.5126998310e+01 0.0000000000e+00 0.0000e+00 -1.0000e+00
       25  1    1    2    0    0 +0.0000000000e+00 +0.0000000000e+00 +4.1434265374e+01 1.3168826199e+02 1.2500000000e+02 0.0000e+00 0.0000e+00
<mgrwt>
<rscale>  0 0.12500000E+03</rscale>
<asrwt>0</asrwt>
<pdfrwt beam="1">  1       21 0.13317117E-01 0.12500000E+03</pdfrwt>
<pdfrwt beam="2">  1       21 0.69426151E-02 0.12500000E+03</pdfrwt>
<totfact> 0.73138073E+06</totfact>
</mgrwt>
</event>
<event>
 3      1 +1.7592000e+01 1.25000000e+02 7.54677100e-03 1.23506900e-01
       21 -1    0    0  502  501 +0.0000000000e+00 +0.0000000000e+00 +1.5592265517e+02 1.5592265517e+02 0.0000000000e+00 0.0000e+00 -1.0000e+00
       21 -1    0    0  501  502 -0.0000000000e+00 -0.0000000000e+00 -2.5052485129e+01 2.5052485129e+01 0.0000000000e+00 0.0000e+00 -1.0000e+00
       25  1    1    2    0    0 +0.0000000000e+00 +0.0000000000e+00 +1.3087017004e+02 1.8097514030e+02 1.2500000000e+02 0.0000e+00 0.0000e+00
<mgrwt>
<rscale>  0 0.12500000E+03</rscale>
<asrwt>0</asrwt>
<pdfrwt beam="1">  1       21 0.23988100E-01 0.12500000E+03</pdfrwt>
<pdfrwt beam="2">  1       21 0.38542286E-02 0.12500000E+03</pdfrwt>
<totfact> 0.67039848E+06</totfact>
</mgrwt>
</event>
<event>
 3      1 +1.7592000e+01 1.25000000e+02 7.54677100e-03 1.23506900e-01
       21 -1    0    0  502  501 +0.0000000000e+00 +0.0000000000e+00 +8.5690643313e+00 8.5690643313e+00 0.0000000000e+00 0.0000e+00 1.0000e+00
       21 -1    0    0  501  502 -0.0000000000e+00 -0.0000000000e+00 -4.5585490422e+02 4.5585490422e+02 0.0000000000e+00 0.0000e+00 1.0000e+00
       25  1    1    2    0    0 +0.0000000000e+00 +0.0000000000e+00 -4.4728583989e+02 4.6442396855e+02 1.2500000000e+02 0.0000e+00 0.0000e+00
<mgrwt>
<rscale>  0 0.12500000E+03</rscale>
<asrwt>0</asrwt>
<pdfrwt beam="1">  1       21 0.13183176E-02 0.12500000E+03</pdfrwt>
<pdfrwt beam="2">  1       21 0.70131524E-01 0.12500000E+03</pdfrwt>
<totfact> 0.44041564E+06</totfact>
</mgrwt>
</event>
<event>
 3      1 +1.7592000e+01 1.25000000e+02 7.54677100e-03 1.23506900e-01
       21 -1    0    0  502  501 +0.0000000000e+00 +0.0000000000e+00 +1.4222775970e+03 1.4222775970e+03 0.0000000000e+00 0.0000e+00 1.0000e+00
       21 -1    0    0  501  502 -0.0000000000e+00 -0.0000000000e+00 -2.7464750962e+00 2.7464750962e+00 0.0000000000e+00 0.0000e+00 1.0000e+00
       25  1    1    2    0    0 +0.0000000000e+00 +0.0000000000e+00 +1.4195311219e+03 1.4250240721e+03 1.2500000000e+02 0.0000e+00 0.0000e+00
<mgrwt>
<rscale>  0 0.12500000E+03</rscale>
<asrwt>0</asrwt>
<pdfrwt beam="1">  1       21 0.21881135E+00 0.12500000E+03</pdfrwt>
<pdfrwt beam="2">  1       21 0.42253577E-03 0.12500000E+03</pdfrwt>
<totfact> 0.15142543E+06</totfact>
</mgrwt>
</event>
<event>
 3      1 +1.7592000e+01 1.25000000e+02 7.54677100e-03 1.23506900e-01
       21 -1    0    0  502  501 +0.0000000000e+00 +0.0000000000e+00 +4.8844237439e+01 4.8844237439e+01 0.0000000000e+00 0.0000e+00 -1.0000e+00
       21 -1    0    0  501  502 -0.0000000000e+00 -0.0000000000e+00 -7.9973610089e+01 7.9973610089e+01 0.0000000000e+00 0.0000e+00 -1.0000e+00
       25  1    1    2    0    0 +0.0000000000e+00 +0.0000000000e+00 -3.1129372650e+01 1.2881784753e+02 1.2500000000e+02 0.0000e+00 0.0000e+00
<mgrwt>
<rscale>  0 0.12500000E+03</rscale>
<asrwt>0</asrwt>
<pdfrwt beam="1">  1       21 0.75144981E-02 0.12500000E+03</pdfrwt>
<pdfrwt beam="2">  1       21 0.12303632E-01 0.12500000E+03</pdfrwt>
<totfact> 0.73523356E+06</totfact>
</mgrwt>
</event>
<event>
 3      1 +1.7592000e+01 1.25000000e+02 7.54677100e-03 1.23506900e-01
       21 -1    0    0  502  501 +0.0000000000e+00 +0.0000000000e+00 +3.4820582235e+02 3.4820582235e+02 0.0000000000e+00 0.0000e+00 1.0000e+00
       21 -1    0    0  501  502 -0.0000000000e+00 -0.0000000000e+00 -1.1218221377e+01 1.1218221377e+01 0.0000000000e+00 0.0000e+00 1.0000e+00
       25  1    1    2    0    0 +0.0000000000e+00 +0.0000000000e+00 +3.3698760098e+02 3.5942404373e+02 1.2500000000e+02 0.0000e+00 0.0000e+00
<mgrwt>
<rscale>  0 0.12500000E+03</rscale>
<asrwt>0</asrwt>
<pdfrwt beam="1">  1       21 0.53570118E-01 0.12500000E+03</pdfrwt>
<pdfrwt beam="2">  1       21 0.17258805E-02 0.12500000E+03</pdfrwt>
<totfact> 0.50849886E+06</totfact>
</mgrwt>
</event>
<event>
 3      1 +1.7592000e+01 1.25000000e+02 7.54677100e-03 1.23506900e-01
       21 -1    0    0  502  501 +0.0000000000e+00 +0.0000000000e+00 +8.1265945461e+00 8.1265945461e+00 0.0000000000e+00 0.0000e+00 1.0000e+00
       21 -1    0    0  501  502 -0.0000000000e+00 -0.0000000000e+00 -4.8067489744e+02 4.8067489744e+02 0.0000000000e+00 0.0000e+00 1.0000e+00
       25  1    1    2    0    0 +0.0000000000e+00 +0.0000000000e+00 -4.7254830289e+02 4.8880149199e+02 1.2500000000e+02 0.0000e+00 0.0000e+00
<mgrwt>
<rscale>  0 0.12500000E+03</rscale>
<asrwt>0</asrwt>
<pdfrwt beam="1">  1       21 0.12502452E-02 0.12500000E+03</pdfrwt>
<pdfrwt beam="2">  1       21 0.73949988E-01 0.12500000E+03</pdfrwt>
<totfact> 0.42657974E+06</totfact>
</mgrwt>
</event>
<event>
 3      1 +1.7592000e+01 1.25000000e+02 7.54677100e-03 1.23506900e-01
       21 -1    0    0  502  501 +0.0000000000e+00 +0.0000000000e+00 +2.8983119392e+02 2.8983119392e+02 0.0000000000e+00 0.0000e+00 -1.0000e+00
       21 -1    0    0  501  502 -0.0000000000e+00 -0.0000000000e+00 -1.3477672804e+01 1.3477672804e+01 0.0000000000e+00 0.0000e+00 -1.0000e+00
       25  1    1    2    0    0 +0.0000000000e+00 +0.0000000000e+00 +2.7635352112e+02 3.0330886673e+02 1.2500000000e+02 0.0000e+00 0.0000e+00
<mgrwt>
<rscale>  0 0.12500000E+03</rscale>
<asrwt>0</asrwt>
<pdfrwt beam="1">  1       21 0.44589410E-01 0.12500000E+03</pdfrwt>
<pdfrwt beam="2">  1       21 0.20734883E-02 0.12500000E+03</pdfrwt>
<totfact> 0.55182312E+06</totfact>
</mgrwt>
</event>
<event>
 3      1 +1.7592000e+01 1.25000000e+02 7.54677100e-03 1.23506900e-01
       21 -1    0    0  502  501 +0.0000000000e+00 +0.0000000000e+00 +3.3691810026e+02 3.3691810026e+02 0.0000000000e+00 0.0000e+00 -1.0000e+00
       21 -1    0    0  501  502 -0.0000000000e+00 -0.0000000000e+00 -1.1594063949e+01 1.1594063949e+01 0.0000000000e+00 0.0000e+00 -1.0000e+00
       25  1    1    2    0    0 +0.0000000000e+00 +0.0000000000e+00 +3.2532403632e+02 3.4851216421e+02 1.2500000000e+02 0.0000e+00 0.0000e+00
<mgrwt>
<rscale>  0 0.12500000E+03</rscale>
<asrwt>0</asrwt>
<pdfrwt beam="1">  1       21 0.51833547E-01 0.12500000E+03</pdfrwt>
<pdfrwt beam="2">  1       21 0.17837024E-02 0.12500000E+03</pdfrwt>
<totfact> 0.51648504E+06</totfact>
</mgrwt>
</event>
<event>
 3      1 +1.7592000e+01 1.25000000e+02 7.54677100e-03 1.23506900e-01
       21 -1    0    0  502  501 +0.0000000000e+00 +0.0000000000e+00 +2.1209021551e+02 2.1209021551e+02 0.0000000000e+00 0.0000e+00 -1.0000e+00
       21 -1    0    0  501  502 -0.0000000000e+00 -0.0000000000e+00 -1.8417869917e+01 1.8417869917e+01 0.0000000000e+00 0.0000e+00 -1.0000e+00
       25  1    1    2    0    0 +0.0000000000e+00 +0.0000000000e+00 +1.9367234559e+02 2.3050808543e+02 1.2500000000e+02 0.0000e+00 0.0000e+00
<mgrwt>
<rscale>  0 0.12500000E+03</rscale>
<asrwt>0</asrwt>
<pdfrwt beam="1">  1       21 0.32629262E-01 0.12500000E+03</pdfrwt>
<pdfrwt beam="2">  1       21 0.28335186E-02 0.12500000E+03</pdfrwt>
<totfact> 0.61763453E+06</totfact>
</mgrwt>
</event>
<event>
 3      1 +1.7592000e+01 1.25000000e+02 7.54677100e-03 1.23506900e-01
       21 -1    0    0  502  501 +0.0000000000e+00 +0.0000000000e+00 +2.6569800440e+02 2.6569800440e+02 0.0000000000e+00 0.0000e+00 -1.0000e+00
       21 -1    0    0  501  502 -0.0000000000e+00 -0.0000000000e+00 -1.4701841697e+01 1.4701841697e+01 0.0000000000e+00 0.0000e+00 -1.0000e+00
       25  1    1    2    0    0 +0.0000000000e+00 +0.0000000000e+00 +2.5099616270e+02 2.8039984610e+02 1.2500000000e+02 0.0000e+00 0.0000e+00
<mgrwt>
<rscale>  0 0.12500000E+03</rscale>
<asrwt>0</asrwt>
<pdfrwt beam="1">  1       21 0.40876613E-01 0.12500000E+03</pdfrwt>
<pdfrwt beam="2">  1       21 0.22618220E-02 0.12500000E+03</pdfrwt>
<totfact> 0.57125401E+06</totfact>
</mgrwt>
</event>
<event>
 3      1 +1.7592000e+01 1.25000000e+02 7.54677100e-03 1.23506900e-01
       21 -1    0    0  502  501 +0.0000000000e+00 +0.0000000000e+00 +2.4827613042e+02 2.4827613042e+02 0.0000000000e+00 0.0000e+00 1.0000e+00
       21 -1    0    0  501  502 -0.0000000000e+00 -0.0000000000e+00 -1.5733489939e+01 1.5733489939e+01 0.0000000000e+00 0.0000e+00 1.0000e+00
       25  1    1    2    0    0 +0.0000000000e+00 +0.0000000000e+00 +2.3254264048e+02 2.6400962036e+02 1.2500000000e+02 0.0000e+00 0.0000e+00
<mgrwt>
<rscale>  0 0.12500000E+03</rscale>
<asrwt>0</asrwt>
<pdfrwt beam="1">  1       21 0.38196325E-01 0.12500000E+03</pdfrwt>
<pdfrwt beam="2">  1       21 0.24205371E-02 0.12500000E+03</pdfrwt>
<totfact> 0.58583708E+06</totfact>
</mgrwt>
</event>
<event>
 3      1 +1.7592000e+01 1.25000000e+02 7.54677100e-03 1.23506900e-01
       21 -1    0    0  502  501 +0.0000000000e+00 +0.0000000000e+00 +6.7578194236e+00 6.7578194236e+00 0.0000000000e+00 0.0000e+00 1.0000e+00
       21 -1    0    0  501  502 -0.0000000000e+00 -0.0000000000e+00 -5.7803408986e+02 5.7803408986e+02 0.0000000000e+00 0.0000e+00 1.0000e+00
       25  1    1    2    0    0 +0.0000000000e+00 +0.0000000000e+00 -5.7127627044e+02 5.8479190929e+02 1.2500000000e+02 0.0000e+00 0.0000e+00
<mgrwt>
<rscale>  0 0.12500000E+03</rscale>
<asrwt>0</asrwt>
<pdfrwt beam="1">  1       21 0.10396644E-02 0.12500000E+03</pdfrwt>
<pdfrwt beam="2">  1       21 0.88928335E-01 0.12500000E+03</pdfrwt>
<totfact> 0.37789550E+06</totfact>
</mgrwt>
</event>
<event>
 3      1 +1.7592000e+01 1.25000000e+02 7.54677100e-03 1.23506900e-01
       21 -1    0    0  502  501 +0.0000000000e+00 +0.0000000000e+00 +3.2965096207e+00 3.2965096207e+00 0.0000000000e+00 0.0000e+00 1.0000e+00
       21 -1    0    0  501  502 -0.0000000000e+00 -0.0000000000e+00 -1.1849654482e+03 1.1849654482e+03 0.0000000000e+00 0.0000e+00 1.0000e+00
       25  1    1    2    0    0 +0.0000000000e+00 +0.0000000000e+00 -1.1816689385e+03 1.1882619578e+03 1.2500000000e+02 0.0000e+00 0.0000e+00
<mgrwt>
<rscale>  0 0.12500000E+03</rscale>
<asrwt>0</asrwt>
<pdfrwt beam="1">  1       21 0.50715534E-03 0.12500000E+03</pdfrwt>
<pdfrwt beam="2">  1       21 0.18230237E+00 0.12500000E+03</pdfrwt>
<totfact> 0.19378870E+06</totfact>
</mgrwt>
</event>
<event>
 3      1 +1.7592000e+01 1.25000000e+02 7.54677100e-03 1.23506900e-01
       21 -1    0    0  502  501 +0.0000000000e+00 +0.0000000000e+00 +1.0663178633e+02 1.0663178633e+02 0.0000000000e+00 0.0000e+00 1.0000e+00
       21 -1    0    0  501  502 -0.0000000000e+00 -0.0000000000e+00 -3.6633072882e+01 3.6633072882e+01 0.0000000000e+00 0.0000e+00 1.0000e+00
       25  1    1    2    0    0 +0.0000000000e+00 +0.0000000000e+00 +6.9998713443e+01 1.4326485921e+02 1.2500000000e+02 0.0000e+00 0.0000e+00
<mgrwt>
<rscale>  0 0.12500000E+03</rscale>
<asrwt>0</asrwt>
<pdfrwt beam="1">  1       21 0.16404890E-01 0.12500000E+03</pdfrwt>
<pdfrwt beam="2">  1       21 0.56358574E-02 0.12500000E+03</pdfrwt>
<totfact> 0.71615901E+06</totfact>
</mgrwt>
</event>
<event>
 3      1 +1.7592000e+01 1.25000000e+02 7.54677100e-03 1.23506900e-01
       21 -1    0    0  502  501 +0.0000000000e+00 +0.0000000000e+00 +1.0499123647e+02 1.0499123647e+02 0.0000000000e+00 0.0000e+00 -1.0000e+00
       21 -1    0    0  501  502 -0.0000000000e+00 -0.0000000000e+00 -3.7205486204e+01 3.7205486204e+01 0.0000000000e+00 0.0000e+00 -1.0000e+00
       25  1    1    2    0    0 +0.0000000000e+00 +0.0000000000e+00 +6.7785750265e+01 1.4219672267e+02 1.2500000000e+02 0.0000e+00 0.0000e+00
<mgrwt>
<rscale>  0 0.12500000E+03</rscale>
<asrwt>0</asrwt>
<pdfrwt beam="1">  1       21 0.16152498E-01 0.12500000E+03</pdfrwt>
<pdfrwt beam="2">  1       21 0.57239210E-02 0.12500000E+03</pdfrwt>
<totfact> 0.71753813E+06</totfact>
</mgrwt>
</event>
<event>
 3      1 +1.7592000e+01 1.25000000e+02 7.54677100e-03 1.23506900e-01
       21 -1    0    0  502  501 +0.0000000000e+00 +0.0000000000e+00 +1.2290670810e+02 1.2290670810e+02 0.0000000000e+00 0.0000e+00 1.0000e+00
       21 -1    0    0  501  502 -0.0000000000e+00 -0.0000000000e+00 -3.1782235977e+01 3.1782235977e+01 0.0000000000e+00 0.0000e+00 1.0000e+00
       25  1    1    2    0    0 +0.0000000000e+00 +0.0000000000e+00 +9.1124472124e+01 1.5468894408e+02 1.2500000000e+02 0.0000e+00 0.0000e+00
<mgrwt>
<rscale>  0 0.12500000E+03</rscale>
<asrwt>0</asrwt>
<pdfrwt beam="1">  1       21 0.18908724E-01 0.12500000E+03</pdfrwt>
<pdfrwt beam="2">  1       21 0.48895748E-02 0.12500000E+03</pdfrwt>
<totfact> 0.70174340E+06</totfact>
</mgrwt>
</event>
<event>
 3      1 +1.7592000e+01 1.25000000e+02 7.54677100e-03 1.23506900e-01
       21 -1    0    0  502  501 +0.0000000000e+00 +0.0000000000e+00 +5.8618122742e+01 5.8618122742e+01 0.0000000000e+00 0.0000e+00 -1.0000e+00
       21 -1    0    0  501  502 -0.0000000000e+00 -0.0000000000e+00 -6.6638947433e+01 6.6638947433e+01 0.0000000000e+00 0.0000e+00 -1.0000e+00
       25  1    1    2    0    0 +0.0000000000e+00 +0.0000000000e+00 -8.0208246912e+00 1.2525707017e+02 1.2500000000e+02 0.0000e+00 0.0000e+00
<mgrwt>
<rscale>  0 0.12500000E+03</rscale>
<asrwt>0</asrwt>
<pdfrwt beam="1">  1       21 0.90181728E-02 0.12500000E+03</pdfrwt>
<pdfrwt beam="2">  1       21 0.10252146E-01 0.12500000E+03</pdfrwt>
<totfact> 0.74008867E+06</totfact>
</mgrwt>
</event>
<event>
 3      1 +1.7592000e+01 1.25000000e+02 7.54677100e-03 1.23506900e-01
       21 -1    0    0  502  501 +0.0000000000e+00 +0.0000000000e+00 +2.3822548499e+00 2.3822548499e+00 0.0000000000e+00 0.0000e+00 1.0000e+00
       21 -1    0    0  501  502 -0.0000000000e+00 -0.0000000000e+00 -1.6397280082e+03 1.6397280082e+03 0.0000000000e+00 0.0000e+00 1.0000e+00
       25  1    1    2    0    0 +0.0000000000e+00 +0.0000000000e+00 -1.6373457533e+03 1.6421102630e+03 1.2500000000e+02 0.0000e+00 0.0000e+00
<mgrwt>
<rscale>  0 0.12500000E+03</rscale>
<asrwt>0</asrwt>
<pdfrwt beam="1">  1       21 0.36650082E-03 0.12500000E+03</pdfrwt>
<pdfrwt beam="2">  1       21 0.25226580E+00 0.12500000E+03</pdfrwt>
<totfact> 0.12011108E+06</totfact>
</mgrwt>
</event>
<event>
 3      1 +1.7592000e+01 1.25000000e+02 7.54677100e-03 1.23506900e-01
       21 -1    0    0  502  501 +0.0000000000e+00 +0.0000000000e+00 +1.9969656881e+01 1.9969656881e+01 0.0000000000e+00 0.0000e+00 1.0000e+00
       21 -1    0    0  501  502 -0.0000000000e+00 -0.0000000000e+00 -1.9560926977e+02 1.9560926977e+02 0.0000000000e+00 0.0000e+00 1.0000e+00
       25  1    1    2    0    0 +0.0000000000e+00 +0.0000000000e+00 -1.7563961289e+02 2.1557892665e+02 1.2500000000e+02 0.0000e+00 0.0000e+00
<mgrwt>
<rscale>  0 0.12500000E+03</rscale>
<asrwt>0</asrwt>
<pdfrwt beam="1">  1       21 0.30722548E-02 0.12500000E+03</pdfrwt>
<pdfrwt beam="2">  1       21 0.30093735E-01 0.12500000E+03</pdfrwt>
<totfact> 0.63277306E+06</totfact>
</mgrwt>
</event>
<event>
 3      1 +1.7592000e+01 1.25000000e+02 7.54677100e-03 1.23506900e-01
       21 -1    0    0  502  501 +0.0000000000e+00 +0.0000000000e+00 +1.1310921438e+02 1.1310921438e+02 0.0000000000e+00 0.0000e+00 1.0000e+00
       21 -1    0    0  501  502 -0.0000000000e+00 -0.0000000000e+00 -3.4535205832e+01 3.4535205832e+01 0.0000000000e+00 0.0000e+00 1.0000e+00
       25  1    1    2    0    0 +0.0000000000e+00 +0.0000000000e+00 +7.8574008545e+01 1.4764442021e+02 1.2500000000e+02 0.0000e+00 0.0000e+00
<mgrwt>
<rscale>  0 0.12500000E+03</rscale>
<asrwt>0</asrwt>
<pdfrwt beam="1">  1       21 0.17401418E-01 0.12500000E+03</pdfrwt>
<pdfrwt beam="2">  1       21 0.53131086E-02 0.12500000E+03</pdfrwt>
<totfact> 0.71056374E+06</totfact>
</mgrwt>
</event>
<event>
 3      1 +1.7592000e+01 1.25000000e+02 7.54677100e-03 1.23506900e-01
       21 -1    0    0  502  501 +0.0000000000e+00 +0.0000000000e+00 +3.7414283233e+01 3.7414283233e+01 0.0000000000e+00 0.0000e+00 1.0000e+00
       21 -1    0    0  501  502 -0.0000000000e+00 -0.0000000000e+00 -1.0440531429e+02 1.0440531429e+02 0.0000000000e+00 0.0000e+00 1.0000e+00
       25  1    1    2    0    0 +0.0000000000e+00 +0.0000000000e+00 -6.6991031059e+01 1.4181959753e+02 1.2500000000e+02 0.0000e+00 0.0000e+00
<mgrwt>
<rscale>  0 0.12500000E+03</rscale>
<asrwt>0</asrwt>
<pdfrwt beam="1">  1       21 0.57560436E-02 0.12500000E+03</pdfrwt>
<pdfrwt beam="2">  1       21 0.16062356E-01 0.12500000E+03</pdfrwt>
<totfact> 0.71802645E+06</totfact>
</mgrwt>
</event>
<event>
 3      1 +1.7592000e+01 1.25000000e+02 7.54677100e-03 1.23506900e-01
       21 -1    0    0  502  501 +0.0000000000e+00 +0.0000000000e+00 +1.2789955182e+02 1.2789955182e+02 0.0000000000e+00 0.0000e+00 1.0000e+00
       21 -1    0    0  501  502 -0.0000000000e+00 -0.0000000000e+00 -3.0541545645e+01 3.0541545645e+01 0.0000000000e+00 0.0000e+00 1.0000e+00
       25  1    1    2    0    0 +0.0000000000e+00 +0.0000000000e+00 +9.7358006177e+01 1.5844109747e+02 1.2500000000e+02 0.0000e+00 0.0000e+00
<mgrwt>
<rscale>  0 0.12500000E+03</rscale>
<asrwt>0</asrwt>
<pdfrwt beam="1">  1       21 0.19676854E-01 0.12500000E+03</pdfrwt>
<pdfrwt beam="2">  1       21 0.46986994E-02 0.12500000E+03</pdfrwt>
<totfact> 0.69710480E+06</totfact>
</mgrwt>
</event>
<event>
 3      1 +1.7592000e+01 1.25000000e+02 7.54677100e-03 1.23506900e-01
       21 -1    0    0  502  501 +0.0000000000e+00 +0.0000000000e+00 +1.4815993975e+01 1.4815993975e+01 0.0000000000e+00 0.0000e+00 1.0000e+00
       21 -1    0    0  501  502 -0.0000000000e+00 -0.0000000000e+00 -2.6365089014e+02 2.6365089014e+02 0.0000000000e+00 0.0000e+00 1.0000e+00
       25  1    1    2    0    0 +0.0000000000e+00 +0.0000000000e+00 -2.4883489617e+02 2.7846688412e+02 1.2500000000e+02 0.0000e+00 0.0000e+00
<mgrwt>
<rscale>  0 0.12500000E+03</rscale>
<asrwt>0</asrwt>
<pdfrwt beam="1">  1       21 0.22793838E-02 0.12500000E+03</pdfrwt>
<pdfrwt beam="2">  1       21 0.40561674E-01 0.12500000E+03</pdfrwt>
<totfact> 0.57294520E+06</totfact>
</mgrwt>
</event>
<event>
 3      1 +1.7592000e+01 1.25000000e+02 7.54677100e-03 1.23506900e-01
       21 -1    0    0  502  501 +0.0000000000e+00 +0.0000000000e+00 +1.0881865685e+02 1.0881865685e+02 0.0000000000e+00 0.0000e+00 1.0000e+00
       21 -1    0    0  501  502 -0.0000000000e+00 -0.0000000000e+00 -3.5896877550e+01 3.5896877550e+01 0.0000000000e+00 0.0000e+00 1.0000e+00
       25  1    1    2    0    0 +0.0000000000e+00 +0.0000000000e+00 +7.2921779297e+01 1.4471553440e+02 1.2500000000e+02 0.0000e+00 0.0000e+00
<mgrwt>
<rscale>  0 0.12500000E+03</rscale>
<asrwt>0</asrwt>
<pdfrwt beam="1">  1       21 0.16741332E-01 0.12500000E+03</pdfrwt>
<pdfrwt beam="2">  1       21 0.55225966E-02 0.12500000E+03</pdfrwt>
<totfact> 0.71429523E+06</totfact>
</mgrwt>
</event>
<event>
 3      1 +1.7592000e+01 1.25000000e+02 7.54677100e-03 1.23506900e-01
       21 -1    0    0  502  501 +0.0000000000e+00 +0.0000000000e+00 +2.2522859103e+01 2.2522859103e+01 0.0000000000e+00 0.0000e+00 -1.0000e+00
       21 -1    0    0  501  502 -0.0000000000e+00 -0.0000000000e+00 -1.7343490816e+02 1.7343490816e+02 0.0000000000e+00 0.0000e+00 -1.0000e+00
       25  1    1    2    0    0 +0.0000000000e+00 +0.0000000000e+00 -1.5091204905e+02 1.9595776726e+02 1.2500000000e+02 0.0000e+00 0.0000e+00
<mgrwt>
<rscale>  0 0.12500000E+03</rscale>
<asrwt>0</asrwt>
<pdfrwt beam="1">  1       21 0.34650553E-02 0.12500000E+03</pdfrwt>
<pdfrwt beam="2">  1       21 0.26682294E-01 0.12500000E+03</pdfrwt>
<totfact> 0.65366350E+06</totfact>
</mgrwt>
</event>
<event>
 3      1 +1.7592000e+01 1.25000000e+02 7.54677100e-03 1.23506900e-01
       21 -1    0    0  502  501 +0.0000000000e+00 +0.0000000000e+00 +1.2203929698e+02 1.2203929698e+02 0.0000000000e+00 0.0000e+00 1.0000e+00
       21 -1    0    0  501  502 -0.0000000000e+00 -0.0000000000e+00 -3.2008132599e+01 3.2008132599e+01 0.0000000000e+00 0.0000e+00 1.0000e+00
       25  1    1    2    0    0 +0.0000000000e+00 +0.0000000000e+00 +9.0031164382e+01 1.5404742958e+02 1.2500000000e+02 0.0000e+00 0.0000e+00
<mgrwt>
<rscale>  0 0.12500000E+03</rscale>
<asrwt>0</asrwt>
<pdfrwt beam="1">  1       21 0.18775276E-01 0.12500000E+03</pdfrwt>
<pdfrwt beam="2">  1       21 0.49243282E-02 0.12500000E+03</pdfrwt>
<totfact> 0.70254245E+06</totfact>
</mgrwt>
</event>
<event>
 3      1 +1.7592000e+01 1.25000000e+02 7.54677100e-03 1.23506900e-01
       21 -1    0    0  502  501 +0.0000000000e+00 +0.0000000000e+00 +1.4753868127e+02 1.4753868127e+02 0.0000000000e+00 0.0000e+00 1.0000e+00
       21 -1    0    0  501  502 -0.0000000000e+00 -0.0000000000e+00 -2.6476107596e+01 2.6476107596e+01 0.0000000000e+00 0.0000e+00 1.0000e+00
       25  1    1    2    0    0 +0.0000000000e+00 +0.0000000000e+00 +1.2106257368e+02 1.7401478887e+02 1.2500000000e+02 0.0000e+00 0.0000e+00
<mgrwt>
<rscale>  0 0.12500000E+03</rscale>
<asrwt>0</asrwt>
<pdfrwt beam="1">  1       21 0.22698258E-01 0.12500000E+03</pdfrwt>
<pdfrwt beam="2">  1       21 0.40732474E-02 0.12500000E+03</pdfrwt>
<totfact> 0.67844863E+06</totfact>
</mgrwt>
</event>
<event>
 3      1 +1.7592000e+01 1.25000000e+02 7.54677100e-03 1.23506900e-01
       21 -1    0    0  502  501 +0.0000000000e+00 +0.0000000000e+00 +1.9007318779e+02 1.9007318779e+02 0.0000000000e+00 0.0000e+00 -1.0000e+00
       21 -1    0    0  501  502 -0.0000000000e+00 -0.0000000000e+00 -2.0551294190e+01 2.0551294190e+01 0.0000000000e+00 0.0000e+00 -1.0000e+00
       25  1    1    2    0    0 +0.0000000000e+00 +0.0000000000e+00 +1.6952189360e+02 2.1062448198e+02 1.2500000000e+02 0.0000e+00 0.0000e+00
<mgrwt>
<rscale>  0 0.12500000E+03</rscale>
<asrwt>0</asrwt>
<pdfrwt beam="1">  1       21 0.29242028E-01 0.12500000E+03</pdfrwt>
<pdfrwt beam="2">  1       21 0.31617377E-02 0.12500000E+03</pdfrwt>
<totfact> 0.63793893E+06</totfact>
</mgrwt>
</event>
<event>
 3      1 +1.7592000e+01 1.25000000e+02 7.54677100e-03 1.23506900e-01
       21 -1    0    0  502  501 +0.0000000000e+00 +0.0000000000e+00 +3.2213576120e+02 3.2213576120e+02 0.0000000000e+00 0.0000e+00 -1.0000e+00
       21 -1    0    0  501  502 -0.0000000000e+00 -0.0000000000e+00 -1.2126098591e+01 1.2126098591e+01 0.0000000000e+00 0.0000e+00 -1.0000e+00
       25  1    1    2    0    0 +0.0000000000e+00 +0.0000000000e+00 +3.1000966261e+02 3.3426185979e+02 1.2500000000e+02 0.0000e+00 0.0000e+00
<mgrwt>
<rscale>  0 0.12500000E+03</rscale>
<asrwt>0</asrwt>
<pdfrwt beam="1">  1       21 0.49559341E-01 0.12500000E+03</pdfrwt>
<pdfrwt beam="2">  1       21 0.18655539E-02 0.12500000E+03</pdfrwt>
<totfact> 0.52722170E+06</totfact>
</mgrwt>
</event>
<event>
 3      1 +1.7592000e+01 1.25000000e+02 7.54677100e-03 1.23506900e-01
       21 -1    0    0  502  501 +0.0000000000e+00 +0.0000000000e+00 +5.5209631934e+01 5.5209631934e+01 0.0000000000e+00 0.0000e+00 1.0000e+00
       21 -1    0    0  501  502 -0.0000000000e+00 -0.0000000000e+00 -7.0753052741e+01 7.0753052741e+01 0.0000000000e+00 0.0000e+00 1.0000e+00
       25  1    1    2    0    0 +0.0000000000e+00 +0.0000000000e+00 -1.5543420807e+01 1.2596268467e+02 1.2500000000e+02 0.0000e+00 0.0000e+00
<mgrwt>
<rscale>  0 0.12500000E+03</rscale>
<asrwt>0</asrwt>
<pdfrwt beam="1">  1       21 0.84937895E-02 0.12500000E+03</pdfrwt>
<pdfrwt beam="2">  1       21 0.10885085E-01 0.12500000E+03</pdfrwt>
<totfact> 0.73911185E+06</totfact>
</mgrwt>
</event>
<event>
 3      1 +1.7592000e+01 1.25000000e+02 7.54677100e-03 1.23506900e-01
       21 -1    0    0  502  501 +0.0000000000e+00 +0.0000000000e+00 +2.3214051287e+01 2.3214051287e+01 0.0000000000e+00 0.0000e+00 1.0000e+00
       21 -1    0    0  501  502 -0.0000000000e+00 -0.0000000000e+00 -1.6827093004e+02 1.6827093004e+02 0.0000000000e+00 0.0000e+00 1.0000e+00
       25  1    1    2    0    0 +0.0000000000e+00 +0.0000000000e+00 -1.4505687875e+02 1.9148498132e+02 1.2500000000e+02 0.0000e+00 0.0000e+00
<mgrwt>
<rscale>  0 0.12500000E+03</rscale>
<asrwt>0</asrwt>
<pdfrwt beam="1">  1       21 0.35713925E-02 0.12500000E+03</pdfrwt>
<pdfrwt beam="2">  1       21 0.25887836E-01 0.12500000E+03</pdfrwt>
<totfact> 0.65857801E+06</totfact>
</mgrwt>
</event>
<event>
 3      1 +1.7592000e+01 1.25000000e+02 7.54677100e-03 1.23506900e-01
       21 -1    0    0  502  501 +0.0000000000e+00 +0.0000000000e+00 +5.0589933641e+01 5.0589933641e+01 0.0000000000e+00 0.0000e+00 1.0000e+00
       21 -1    0    0  501  502 -0.0000000000e+00 -0.0000000000e+00 -7.7213977542e+01 7.7213977542e+01 0.0000000000e+00 0.0000e+00 1.0000e+00
       25  1    1    2    0    0 +0.0000000000e+00 +0.0000000000e+00 -2.6624043901e+01 1.2780391118e+02 1.2500000000e+02 0.0000e+00 0.0000e+00
<mgrwt>
<rscale>  0 0.12500000E+03</rscale>
<asrwt>0</asrwt>
<pdfrwt beam="1">  1       21 0.77830668E-02 0.12500000E+03</pdfrwt>
<pdfrwt beam="2">  1       21 0.11879073E-01 0.12500000E+03</pdfrwt>
<totfact> 0.73660065E+06</totfact>
</mgrwt>
</event>
<event>
 3      1 +1.7592000e+01 1.25000000e+02 7.54677100e-03 1.23506900e-01
       21 -1    0    0  502  501 +0.0000000000e+00 +0.0000000000e+00 +1.8885303803e+02 1.8885303803e+02 0.0000000000e+00 0.0000e+00 -1.0000e+00
       21 -1    0    0  501  502 -0.0000000000e+00 -0.0000000000e+00 -2.0684072869e+01 2.0684072869e+01 0.0000000000e+00 0.0000e+00 -1.0000e+00
       25  1    1    2    0    0 +0.0000000000e+00 +0.0000000000e+00 +1.6816896516e+02 2.0953711090e+02 1.2500000000e+02 0.0000e+00 0.0000e+00
<mgrwt>
<rscale>  0 0.12500000E+03</rscale>
<asrwt>0</asrwt>
<pdfrwt beam="1">  1       21 0.29054312E-01 0.12500000E+03</pdfrwt>
<pdfrwt beam="2">  1       21 0.31821652E-02 0.12500000E+03</pdfrwt>
<totfact> 0.63908270E+06</totfact>
</mgrwt>
</event>
<event>
 3      1 +1.7592000e+01 1.25000000e+02 7.54677100e-03 1.23506900e-01
       21 -1    0    0  502  501 +0.0000000000e+00 +0.0000000000e+00 +3.2111591146e+02 3.2111591146e+02 0.0000000000e+00 0.0000e+00 -1.0000e+00
       21 -1    0    0  501  502 -0.0000000000e+00 -0.0000000000e+00 -1.2164610537e+01 1.2164610537e+01 0.0000000000e+00 0.0000e+00 -1.0000e+00
       25  1    1    2    0    0 +0.0000000000e+00 +0.0000000000e+00 +3.0895130092e+02 3.3328052200e+02 1.2500000000e+02 0.0000e+00 0.0000e+00
<mgrwt>
<rscale>  0 0.12500000E+03</rscale>
<asrwt>0</asrwt>
<pdfrwt beam="1">  1       21 0.49402441E-01 0.12500000E+03</pdfrwt>
<pdfrwt beam="2">  1       21 0.18714788E-02 0.12500000E+03</pdfrwt>
<totfact> 0.52797431E+06</totfact>
</mgrwt>
</event>
<event>
 3      1 +1.7592000e+01 1.25000000e+02 7.54677100e-03 1.23506900e-01
       21 -1    0    0  502  501 +0.0000000000e+00 +0.0000000000e+00 +4.0890157138e+01 4.0890157138e+01 0.0000000000e+00 0.0000e+00 1.0000e+00
       21 -1    0    0  501  502 -0.0000000000e+00 -0.0000000000e+00 -9.5530324983e+01 9.5530324983e+01 0.0000000000e+00 0.0000e+00 1.0000e+00
       25  1    1    2    0    0 +0.0000000000e+00 +0.0000000000e+00 -5.4640167845e+01 1.3642048212e+02 1.2500000000e+02 0.0000e+00 0.0000e+00
<mgrwt>
<rscale>  0 0.12500000E+03</rscale>
<asrwt>0</asrwt>
<pdfrwt beam="1">  1       21 0.62907934E-02 0.12500000E+03</pdfrwt>
<pdfrwt beam="2">  1       21 0.14696973E-01 0.12500000E+03</pdfrwt>
<totfact> 0.72508933E+06</totfact>
</mgrwt>
</event>
<event>
 3      1 +1.7592000e+01 1.25000000e+02 7.54677100e-03 1.23506900e-01
       21 -1    0    0  502  501 +0.0000000000e+00 +0.0000000000e+00 +1.6812237432e+02 1.6812237432e+02 0.0000000000e+00 0.0000e+00 -1.0000e+00
       21 -1    0    0  501  502 -0.0000000000e+00 -0.0000000000e+00 -2.3234563608e+01 2.3234563608e+01 0.0000000000e+00 0.0000e+00 -1.0000e+00
       25  1    1    2    0    0 +0.0000000000e+00 +0.0000000000e+00 +1.4488781071e+02 1.9135693792e+02 1.2500000000e+02 0.0000e+00 0.0000e+00
<mgrwt>
<rscale>  0 0.12500000E+03</rscale>
<asrwt>0</asrwt>
<pdfrwt beam="1">  1       21 0.25864980E-01 0.12500000E+03</pdfrwt>
<pdfrwt beam="2">  1       21 0.35745484E-02 0.12500000E+03</pdfrwt>
<totfact> 0.65871970E+06</totfact>
</mgrwt>
</event>
<event>
 3      1 +1.7592000e+01 1.25000000e+02 7.54677100e-03 1.23506900e-01
       21 -1    0    0  502  501 +0.0000000000e+00 +0.0000000000e+00 +5.6764481261e+01 5.6764481261e+01 0.0000000000e+00 0.0000e+00 -1.0000e+00
       21 -1    0    0  501  502 -0.0000000000e+00 -0.0000000000e+00 -6.8815039145e+01 6.8815039145e+01 0.0000000000e+00 0.0000e+00 -1.0000e+00
       25  1    1    2    0    0 +0.0000000000e+00 +0.0000000000e+00 -1.2050557884e+01 1.2557952041e+02 1.2500000000e+02 0.0000e+00 0.0000e+00
<mgrwt>
<rscale>  0 0.12500000E+03</rscale>
<asrwt>0</asrwt>
<pdfrwt beam="1">  1       21 0.87329971E-02 0.12500000E+03</pdfrwt>
<pdfrwt beam="2">  1       21 0.10586929E-01 0.12500000E+03</pdfrwt>
<totfact> 0.73964296E+06</totfact>
</mgrwt>
</event>
<event>
 3      1 +1.7592000e+01 1.25000000e+02 7.54677100e-03 1.23506900e-01
       21 -1    0    0  502  501 +0.0000000000e+00 +0.0000000000e+00 +4.6110377701e+02 4.6110377701e+02 0.0000000000e+00 0.0000e+00 -1.0000e+00
       21 -1    0    0  501  502 -0.0000000000e+00 -0.0000000000e+00 -8.4715202841e+00 8.4715202841e+00 0.0000000000e+00 0.0000e+00 -1.0000e+00
       25  1    1    2    0    0 +0.0000000000e+00 +0.0000000000e+00 +4.5263225672e+02 4.6957529729e+02 1.2500000000e+02 0.0000e+00 0.0000e+00
<mgrwt>
<rscale>  0 0.12500000E+03</rscale>
<asrwt>0</asrwt>
<pdfrwt beam="1">  1       21 0.70939023E-01 0.12500000E+03</pdfrwt>
<pdfrwt beam="2">  1       21 0.13033112E-02 0.12500000E+03</pdfrwt>
<totfact> 0.43743640E+06</totfact>
</mgrwt>
</event>
<event>
 3      1 +1.7592000e+01 1.25000000e+02 7.54677100e-03 1.23506900e-01
       21 -1    0    0  502  501 +0.0000000000e+00 +0.0000000000e+00 +5.6111706005e+01 5.6111706005e+01 0.0000000000e+00 0.0000e+00 1.0000e+00
       21 -1    0    0  501  502 -0.0000000000e+00 -0.0000000000e+00 -6.9615598564e+01 6.9615598564e+01 0.0000000000e+00 0.0000e+00 1.0000e+00
       25  1    1    2    0    0 +0.0000000000e+00 +0.0000000000e+00 -1.3503892559e+01 1.2572730457e+02 1.2500000000e+02 0.0000e+00 0.0000e+00
<mgrwt>
<rscale>  0 0.12500000E+03</rscale>
<asrwt>0</asrwt>
<pdfrwt beam="1">  1       21 0.86325702E-02 0.12500000E+03</pdfrwt>
<pdfrwt beam="2">  1       21 0.10710092E-01 0.12500000E+03</pdfrwt>
<totfact> 0.73943748E+06</totfact>
</mgrwt>
</event>
<event>
 3      1 +1.7592000e+01 1.25000000e+02 7.54677100e-03 1.23506900e-01
       21 -1    0    0  502  501 +0.0000000000e+00 +0.0000000000e+00 +2.8788566182e+02 2.8788566182e+02 0.0000000000e+00 0.0000e+00 -1.0000e+00
       21 -1    0    0  501  502 -0.0000000000e+00 -0.0000000000e+00 -1.3568754954e+01 1.3568754954e+01 0.0000000000e+00 0.0000e+00 -1.0000e+00
       25  1    1    2    0    0 +0.0000000000e+00 +0.0000000000e+00 +2.7431690687e+02 3.0145441677e+02 1.2500000000e+02 0.0000e+00 0.0000e+00
<mgrwt>
<rscale>  0 0.12500000E+03</rscale>
<asrwt>0</asrwt>
<pdfrwt beam="1">  1       21 0.44290097E-01 0.12500000E+03</pdfrwt>
<pdfrwt beam="2">  1       21 0.20875010E-02 0.12500000E+03</pdfrwt>
<totfact> 0.55335524E+06</totfact>
</mgrwt>
</event>
<event>
 3      1 +1.7592000e+01 1.25000000e+02 7.54677100e-03 1.23506900e-01
       21 -1    0    0  502  501 +0.0000000000e+00 +0.0000000000e+00 +1.7709560292e+01 1.7709560292e+01 0.0000000000e+00 0.0000e+00 1.0000e+00
       21 -1    0    0  501  502 -0.0000000000e+00 -0.0000000000e+00 -2.2057295244e+02 2.2057295244e+02 0.0000000000e+00 0.0000e+00 1.0000e+00
       25  1    1    2    0    0 +0.0000000000e+00 +0.0000000000e+00 -2.0286339215e+02 2.3828251273e+02 1.2500000000e+02 0.0000e+00 0.0000e+00
<mgrwt>
<rscale>  0 0.12500000E+03</rscale>
<asrwt>0</asrwt>
<pdfrwt beam="1">  1       21 0.27245480E-02 0.12500000E+03</pdfrwt>
<pdfrwt beam="2">  1       21 0.33934297E-01 0.12500000E+03</pdfrwt>
<totfact> 0.60999259E+06</totfact>
</mgrwt>
</event>
<event>
 3      1 +1.7592000e+01 1.25000000e+02 7.54677100e-03 1.23506900e-01
       21 -1    0    0  502  501 +0.0000000000e+00 +0.0000000000e+00 +4.3860859965e+02 4.3860859965e+02 0.0000000000e+00 0.0000e+00 -1.0000e+00
       21 -1    0    0  501  502 -0.0000000000e+00 -0.0000000000e+00 -8.9060041302e+00 8.9060041302e+00 0.0000000000e+00 0.0000e+00 -1.0000e+00
       25  1    1    2    0    0 +0.0000000000e+00 +0.0000000000e+00 +4.2970259552e+02 4.4751460378e+02 1.2500000000e+02 0.0000e+00 0.0000e+00
<mgrwt>
<rscale>  0 0.12500000E+03</rscale>
<asrwt>0</asrwt>
<pdfrwt beam="1">  1       21 0.67478229E-01 0.12500000E+03</pdfrwt>
<pdfrwt beam="2">  1       21 0.13701548E-02 0.12500000E+03</pdfrwt>
<totfact> 0.45041370E+06</totfact>
</mgrwt>
</event>
<event>
 3      1 +1.7592000e+01 1.25000000e+02 7.54677100e-03 1.23506900e-01
       21 -1    0    0  502  501 +0.0000000000e+00 +0.0000000000e+00 +5.5007012903e+00 5.5007012903e+00 0.0000000000e+00 0.0000e+00 1.0000e+00
       21 -1    0    0  501  502 -0.0000000000e+00 -0.0000000000e+00 -7.1013672509e+02 7.1013672509e+02 0.0000000000e+00 0.0000e+00 1.0000e+00
       25  1    1    2    0    0 +0.0000000000e+00 +0.0000000000e+00 -7.0463602380e+02 7.1563742638e+02 1.2500000000e+02 0.0000e+00 0.0000e+00
<mgrwt>
<rscale>  0 0.12500000E+03</rscale>
<asrwt>0</asrwt>
<pdfrwt beam="1">  1       21 0.84626235E-03 0.12500000E+03</pdfrwt>
<pdfrwt beam="2">  1       21 0.10925172E+00 0.12500000E+03</pdfrwt>
<totfact> 0.32315938E+06</totfact>
</mgrwt>
</event>
<event>
 3      1 +1.7592000e+01 1.25000000e+02 7.54677100e-03 1.23506900e-01
       21 -1    0    0  502  501 +0.0000000000e+00 +0.0000000000e+00 +1.2505807142e+01 1.2505807142e+01 0.0000000000e+00 0.0000e+00 -1.0000e+00
       21 -1    0    0  501  502 -0.0000000000e+00 -0.0000000000e+00 -3.1235488886e+02 3.1235488886e+02 0.0000000000e+00 0.0000e+00 -1.0000e+00
       25  1    1    2    0    0 +0.0000000000e+00 +0.0000000000e+00 -2.9984908172e+02 3.2486069601e+02 1.2500000000e+02 0.0000e+00 0.0000e+00
<mgrwt>
<rscale>  0 0.12500000E+03</rscale>
<asrwt>0</asrwt>
<pdfrwt beam="1">  1       21 0.19239704E-02 0.12500000E+03</pdfrwt>
<pdfrwt beam="2">  1       21 0.48054596E-01 0.12500000E+03</pdfrwt>
<totfact> 0.53450392E+06</totfact>
</mgrwt>
</event>
<event>
 3      1 +1.7592000e+01 1.25000000e+02 7.54677100e-03 1.23506900e-01
       21 -1    0    0  502  501 +0.0000000000e+00 +0.0000000000e+00 +9.1962288779e+02 9.1962288779e+02 0.0000000000e+00 0.0000e+00 -1.0000e+00
       21 -1    0    0  501  502 -0.0000000000e+00 -0.0000000000e+00 -4.2476650504e+00 4.2476650504e+00 0.0000000000e+00 0.0000e+00 -1.0000e+00
       25  1    1    2    0    0 +0.0000000000e+00 +0.0000000000e+00 +9.1537522274e+02 9.2387055284e+02 1.2500000000e+02 0.0000e+00 0.0000e+00
<mgrwt>
<rscale>  0 0.12500000E+03</rscale>
<asrwt>0</asrwt>
<pdfrwt beam="1">  1       21 0.14148029E+00 0.12500000E+03</pdfrwt>
<pdfrwt beam="2">  1       21 0.65348766E-03 0.12500000E+03</pdfrwt>
<totfact> 0.25624294E+06</totfact>
</mgrwt>
</event>
<event>
 3      1 +1.7592000e+01 1.25000000e+02 7.54677100e-03 1.23506900e-01
       21 -1    0    0  502  501 +0.0000000000e+00 +0.0000000000e+00 +5.0574267301e+01 5.0574267301e+01 0.0000000000e+00 0.0000e+00 1.0000e+00
       21 -1    0    0  501  502 -0.0000000000e+00 -0.0000000000e+00 -7.7237896037e+01 7.7237896037e+01 0.0000000000e+00 0.0000e+00 1.0000e+00
       25  1    1    2    0    0 +0.0000000000e+00 +0.0000000000e+00 -2.6663628736e+01 1.2781216334e+02 1.2500000000e+02 0.0000e+00 0.0000e+00
<mgrwt>
<rscale>  0 0.12500000E+03</rscale>
<asrwt>0</asrwt>
<pdfrwt beam="1">  1       21 0.77806565E-02 0.12500000E+03</pdfrwt>
<pdfrwt beam="2">  1       21 0.11882753E-01 0.12500000E+03</pdfrwt>
<totfact> 0.73658949E+06</totfact>
</mgrwt>
</event>
<event>
 3      1 +1.7592000e+01 1.25000000e+02 7.54677100e-03 1.23506900e-01
       21 -1    0    0  502  501 +0.0000000000e+00 +0.0000000000e+00 +3.7899210170e+02 3.7899210170e+02 0.0000000000e+00 0.0000e+00 -1.0000e+00
       21 -1    0    0  501  502 -0.0000000000e+00 -0.0000000000e+00 -1.0306943027e+01 1.0306943027e+01 0.0000000000e+00 0.0000e+00 -1.0000e+00
       25  1    1    2    0    0 +0.0000000000e+00 +0.0000000000e+00 +3.6868515867e+02 3.8929904472e+02 1.2500000000e+02 0.0000e+00 0.0000e+00
<mgrwt>
<rscale>  0 0.12500000E+03</rscale>
<asrwt>0</asrwt>
<pdfrwt beam="1">  1       21 0.58306466E-01 0.12500000E+03</pdfrwt>
<pdfrwt beam="2">  1       21 0.15856838E-02 0.12500000E+03</pdfrwt>
<totfact> 0.48759332E+06</totfact>
</mgrwt>
</event>
<event>
 3      1 +1.7592000e+01 1.25000000e+02 7.54677100e-03 1.23506900e-01
       21 -1    0    0  502  501 +0.0000000000e+00 +0.0000000000e+00 +6.5351671148e+01 6.5351671148e+01 0.0000000000e+00 0.0000e+00 -1.0000e+00
       21 -1    0    0  501  502 -0.0000000000e+00 -0.0000000000e+00 -5.9772763747e+01 5.9772763747e+01 0.0000000000e+00 0.0000e+00 -1.0000e+00
       25  1    1    2    0    0 +0.0000000000e+00 +0.0000000000e+00 +5.5789074014e+00 1.2512443490e+02 1.2500000000e+02 0.0000e+00 0.0000e+00
<mgrwt>
<rscale>  0 0.12500000E+03</rscale>
<asrwt>0</asrwt>
<pdfrwt beam="1">  1       21 0.10054103E-01 0.12500000E+03</pdfrwt>
<pdfrwt beam="2">  1       21 0.91958098E-02 0.12500000E+03</pdfrwt>
<totfact> 0.74026776E+06</totfact>
</mgrwt>
</event>
<event>
 3      1 +1.7592000e+01 1.25000000e+02 7.54677100e-03 1.23506900e-01
       21 -1    0    0  502  501 +0.0000000000e+00 +0.0000000000e+00 +2.4649985547e+01 2.4649985547e+01 0.0000000000e+00 0.0000e+00 1.0000e+00
       21 -1    0    0  501  502 -0.0000000000e+00 -0.0000000000e+00 -1.5846865275e+02 1.5846865275e+02 0.0000000000e+00 0.0000e+00 1.0000e+00
       25  1    1    2    0    0 +0.0000000000e+00 +0.0000000000e+00 -1.3381866721e+02 1.8311863830e+02 1.2500000000e+02 0.0000e+00 0.0000e+00
<mgrwt>
<rscale>  0 0.12500000E+03</rscale>
<asrwt>0</asrwt>
<pdfrwt beam="1">  1       21 0.37923054E-02 0.12500000E+03</pdfrwt>
<pdfrwt beam="2">  1       21 0.24379793E-01 0.12500000E+03</pdfrwt>
<totfact> 0.66795564E+06</totfact>
</mgrwt>
</event>
<event>
 3      1 +1.7592000e+01 1.25000000e+02 7.54677100e-03 1.23506900e-01
       21 -1    0    0  502  501 +0.0000000000e+00 +0.0000000000e+00 +4.4093996959e+01 4.4093996959e+01 0.0000000000e+00 0.0000e+00 1.0000e+00
       21 -1    0    0  501  502 -0.0000000000e+00 -0.0000000000e+00 -8.8589156562e+01 8.8589156562e+01 0.0000000000e+00 0.0000e+00 1.0000e+00
       25  1    1    2    0    0 +0.0000000000e+00 +0.0000000000e+00 -4.4495159603e+01 1.3268315352e+02 1.2500000000e+02 0.0000e+00 0.0000e+00
<mgrwt>
<rscale>  0 0.12500000E+03</rscale>
<asrwt>0</asrwt>
<pdfrwt beam="1">  1       21 0.67836919E-02 0.12500000E+03</pdfrwt>
<pdfrwt beam="2">  1       21 0.13629101E-01 0.12500000E+03</pdfrwt>
<totfact> 0.73004737E+06</totfact>
</mgrwt>
</event>
<event>
 3      1 +1.7592000e+01 1.25000000e+02 7.54677100e-03 1.23506900e-01
       21 -1    0    0  502  501 +0.0000000000e+00 +0.0000000000e+00 +9.1313095863e+00 9.1313095863e+00 0.0000000000e+00 0.0000e+00 1.0000e+00
       21 -1    0    0  501  502 -0.0000000000e+00 -0.0000000000e+00 -4.2778639396e+02 4.2778639396e+02 0.0000000000e+00 0.0000e+00 1.0000e+00
       25  1    1    2    0    0 +0.0000000000e+00 +0.0000000000e+00 -4.1865508437e+02 4.3691770354e+02 1.2500000000e+02 0.0000e+00 0.0000e+00
<mgrwt>
<rscale>  0 0.12500000E+03</rscale>
<asrwt>0</asrwt>
<pdfrwt beam="1">  1       21 0.14048174E-02 0.12500000E+03</pdfrwt>
<pdfrwt beam="2">  1       21 0.65813266E-01 0.12500000E+03</pdfrwt>
<totfact> 0.45685313E+06</totfact>
</mgrwt>
</event>
<event>
 3      1 +1.7592000e+01 1.25000000e+02 7.54677100e-03 1.23506900e-01
       21 -1    0    0  502  501 +0.0000000000e+00 +0.0000000000e+00 +1.1688233060e+02 1.1688233060e+02 0.0000000000e+00 0.0000e+00 -1.0000e+00
       21 -1    0    0  501  502 -0.0000000000e+00 -0.0000000000e+00 -3.3420363711e+01 3.3420363711e+01 0.0000000000e+00 0.0000e+00 -1.0000e+00
       25  1    1    2    0    0 +0.0000000000e+00 +0.0000000000e+00 +8.3461966889e+01 1.5030269431e+02 1.2500000000e+02 0.0000e+00 0.0000e+00
<mgrwt>
<rscale>  0 0.12500000E+03</rscale>
<asrwt>0</asrwt>
<pdfrwt beam="1">  1       21 0.17981897E-01 0.12500000E+03</pdfrwt>
<pdfrwt beam="2">  1       21 0.51415945E-02 0.12500000E+03</pdfrwt>
<totfact> 0.70721198E+06</totfact>
</mgrwt>
</event>
<event>
 3      1 +1.7592000e+01 1.25000000e+02 7.54677100e-03 1.23506900e-01
       21 -1    0    0  502  501 +0.0000000000e+00 +0.0000000000e+00 +1.6511446525e+03 1.6511446525e+03 0.0000000000e+00 0.0000e+00 -1.0000e+00
       21 -1    0    0  501  502 -0.0000000000e+00 -0.0000000000e+00 -2.3657830307e+00 2.3657830307e+00 0.0000000000e+00 0.0000e+00 -1.0000e+00
       25  1    1    2    0    0 +0.0000000000e+00 +0.0000000000e+00 +1.6487788695e+03 1.6535104355e+03 1.2500000000e+02 0.0000e+00 0.0000e+00
<mgrwt>
<rscale>  0 0.12500000E+03</rscale>
<asrwt>0</asrwt>
<pdfrwt beam="1">  1       21 0.25402133E+00 0.12500000E+03</pdfrwt>
<pdfrwt beam="2">  1       21 0.36396794E-03 0.12500000E+03</pdfrwt>
<totfact> 0.11862257E+06</totfact>
</mgrwt>
</event>
<event>
 3      1 +1.7592000e+01 1.25000000e+02 7.54677100e-03 1.23506900e-01
       21 -1    0    0  502  501 +0.0000000000e+00 +0.0000000000e+00 +1.3883242266e+01 1.3883242266e+01 0.0000000000e+00 0.0000e+00 -1.0000e+00
       21 -1    0    0  501  502 -0.0000000000e+00 -0.0000000000e+00 -2.8136439063e+02 2.8136439063e+02 0.0000000000e+00 0.0000e+00 -1.0000e+00
       25  1    1    2    0    0 +0.0000000000e+00 +0.0000000000e+00 -2.6748114836e+02 2.9524763289e+02 1.2500000000e+02 0.0000e+00 0.0000e+00
<mgrwt>
<rscale>  0 0.12500000E+03</rscale>
<asrwt>0</asrwt>
<pdfrwt beam="1">  1       21 0.21358835E-02 0.12500000E+03</pdfrwt>
<pdfrwt beam="2">  1       21 0.43286828E-01 0.12500000E+03</pdfrwt>
<totfact> 0.55853441E+06</totfact>
</mgrwt>
</event>
<event>
 3      1 +1.7592000e+01 1.25000000e+02 7.54677100e-03 1.23506900e-01
       21 -1    0    0  502  501 +0.0000000000e+00 +0.0000000000e+00 +1.4964843512e+02 1.4964843512e+02 0.0000000000e+00 0.0000e+00 1.0000e+00
       21 -1    0    0  501  502 -0.0000000000e+00 -0.0000000000e+00 -2.6102845626e+01 2.6102845626e+01 0.0000000000e+00 0.0000e+00 1.0000e+00
       25  1    1    2    0    0 +0.0000000000e+00 +0.0000000000e+00 +1.2354558949e+02 1.7575128074e+02 1.2500000000e+02 0.0000e+00 0.0000e+00
<mgrwt>
<rscale>  0 0.12500000E+03</rscale>
<asrwt>0</asrwt>
<pdfrwt beam="1">  1       21 0.23022836E-01 0.12500000E+03</pdfrwt>
<pdfrwt beam="2">  1       21 0.40158225E-02 0.12500000E+03</pdfrwt>
<totfact> 0.67642310E+06</totfact>
</mgrwt>
</event>
<event>
 3      1 +1.7592000e+01 1.25000000e+02 7.54677100e-03 1.23506900e-01
       21 -1    0    0  502  501 +0.0000000000e+00 +0.0000000000e+00 +6.3241722140e+01 6.3241722140e+01 0.0000000000e+00 0.0000e+00 1.0000e+00
       21 -1    0    0  501  502 -0.0000000000e+00 -0.0000000000e+00 -6.1766977049e+01 6.1766977049e+01 0.0000000000e+00 0.0000e+00 1.0000e+00
       25  1    1    2    0    0 +0.0000000000e+00 +0.0000000000e+00 +1.4747450906e+00 1.2500869919e+02 1.2500000000e+02 0.0000e+00 0.0000e+00
<mgrwt>
<rscale>  0 0.12500000E+03</rscale>
<asrwt>0</asrwt>
<pdfrwt beam="1">  1       21 0.97294957E-02 0.12500000E+03</pdfrwt>
<pdfrwt beam="2">  1       21 0.95026119E-02 0.12500000E+03</pdfrwt>
<totfact> 0.74042406E+06</totfact>
</mgrwt>
</event>
<event>
 3      1 +1.7592000e+01 1.25000000e+02 7.54677100e-03 1.23506900e-01
       21 -1    0    0  502  501 +0.0000000000e+00 +0.0000000000e+00 +3.6203383458e+01 3.6203383458e+01 0.0000000000e+00 0.0000e+00 1.0000e+00
       21 -1    0    0  501  502 -0.0000000000e+00 -0.0000000000e+00 -1.0789737386e+02 1.0789737386e+02 0.0000000000e+00 0.0000e+00 1.0000e+00
       25  1    1    2    0    0 +0.0000000000e+00 +0.0000000000e+00 -7.1693990402e+01 1.4410075732e+02 1.2500000000e+02 0.0000e+00 0.0000e+00
<mgrwt>
<rscale>  0 0.12500000E+03</rscale>
<asrwt>0</asrwt>
<pdfrwt beam="1">  1       21 0.55697513E-02 0.12500000E+03</pdfrwt>
<pdfrwt beam="2">  1       21 0.16599596E-01 0.12500000E+03</pdfrwt>
<totfact> 0.71508379E+06</totfact>
</mgrwt>
</event>
<event>
 3      1 +1.7592000e+01 1.25000000e+02 7.54677100e-03 1.23506900e-01
       21 -1    0    0  502  501 +0.0000000000e+00 +0.0000000000e+00 +4.1610309749e+01 4.1610309749e+01 0.0000000000e+00 0.0000e+00 -1.0000e+00
       21 -1    0    0  501  502 -0.0000000000e+00 -0.0000000000e+00 -9.3876974806e+01 9.3876974806e+01 0.0000000000e+00 0.0000e+00 -1.0000e+00
       25  1    1    2    0    0 +0.0000000000e+00 +0.0000000000e+00 -5.2266665056e+01 1.3548728456e+02 1.2500000000e+02 0.0000e+00 0.0000e+00
<mgrwt>
<rscale>  0 0.12500000E+03</rscale>
<asrwt>0</asrwt>
<pdfrwt beam="1">  1       21 0.64015861E-02 0.12500000E+03</pdfrwt>
<pdfrwt beam="2">  1       21 0.14442611E-01 0.12500000E+03</pdfrwt>
<totfact> 0.72632017E+06</totfact>
</mgrwt>
</event>
<event>
 3      1 +1.7592000e+01 1.25000000e+02 7.54677100e-03 1.23506900e-01
       21 -1    0    0  502  501 +0.0000000000e+00 +0.0000000000e+00 +6.4652603231e+02 6.4652603231e+02 0.0000000000e+00 0.0000e+00 -1.0000e+00
       21 -1    0    0  501  502 -0.0000000000e+00 -0.0000000000e+00 -6.0419067521e+00 6.0419067521e+00 0.0000000000e+00 0.0000e+00 -1.0000e+00
       25  1    1    2    0    0 +0.0000000000e+00 +0.0000000000e+00 +6.4048412555e+02 6.5256793906e+02 1.2500000000e+02 0.0000e+00 0.0000e+00
<mgrwt>
<rscale>  0 0.12500000E+03</rscale>
<asrwt>0</asrwt>
<pdfrwt beam="1">  1       21 0.99465489E-01 0.12500000E+03</pdfrwt>
<pdfrwt beam="2">  1       21 0.92952463E-03 0.12500000E+03</pdfrwt>
<totfact> 0.34817974E+06</totfact>
</mgrwt>
</event>
<event>
 3      1 +1.7592000e+01 1.25000000e+02 7.54677100e-03 1.23506900e-01
       21 -1    0    0  502  501 +0.0000000000e+00 +0.0000000000e+00 +2.4755064757e+01 2.4755064757e+01 0.0000000000e+00 0.0000e+00 1.0000e+00
       21 -1    0    0  501  502 -0.0000000000e+00 -0.0000000000e+00 -1.5779599199e+02 1.5779599199e+02 0.0000000000e+00 0.0000e+00 1.0000e+00
       25  1    1    2    0    0 +0.0000000000e+00 +0.0000000000e+00 -1.3304092723e+02 1.8255105674e+02 1.2500000000e+02 0.0000e+00 0.0000e+00
<mgrwt>
<rscale>  0 0.12500000E+03</rscale>
<asrwt>0</asrwt>
<pdfrwt beam="1">  1       21 0.38084715E-02 0.12500000E+03</pdfrwt>
<pdfrwt beam="2">  1       21 0.24276306E-01 0.12500000E+03</pdfrwt>
<totfact> 0.66860086E+06</totfact>
</mgrwt>
</event>
<event>
 3      1 +1.7592000e+01 1.25000000e+02 7.54677100e-03 1.23506900e-01
       21 -1    0    0  502  501 +0.0000000000e+00 +0.0000000000e+00 +9.9564587527e+01 9.9564587527e+01 0.0000000000e+00 0.0000e+00 -1.0000e+00
       21 -1    0    0  501  502 -0.0000000000e+00 -0.0000000000e+00 -3.9233326798e+01 3.9233326798e+01 0.0000000000e+00 0.0000e+00 -1.0000e+00
       25  1    1    2    0    0 +0.0000000000e+00 +0.0000000000e+00 +6.0331260729e+01 1.3879791433e+02 1.2500000000e+02 0.0000e+00 0.0000e+00
<mgrwt>
<rscale>  0 0.12500000E+03</rscale>
<asrwt>0</asrwt>
<pdfrwt beam="1">  1       21 0.15317629E-01 0.12500000E+03</pdfrwt>
<pdfrwt beam="2">  1       21 0.60358965E-02 0.12500000E+03</pdfrwt>
<totfact> 0.72196629E+06</totfact>
</mgrwt>
</event>
<event>
 3      1 +1.7592000e+01 1.25000000e+02 7.54677100e-03 1.23506900e-01
       21 -1    0    0  502  501 +0.0000000000e+00 +0.0000000000e+00 +5.0472095478e+02 5.0472095478e+02 0.0000000000e+00 0.0000e+00 1.0000e+00
       21 -1    0    0  501  502 -0.0000000000e+00 -0.0000000000e+00 -7.7394250486e+00 7.7394250486e+00 0.0000000000e+00 0.0000e+00 1.0000e+00
       25  1    1    2    0    0 +0.0000000000e+00 +0.0000000000e+00 +4.9698152973e+02 5.1246037983e+02 1.2500000000e+02 0.0000e+00 0.0000e+00
<mgrwt>
<rscale>  0 0.12500000E+03</rscale>
<asrwt>0</asrwt>
<pdfrwt beam="1">  1       21 0.77649352E-01 0.12500000E+03</pdfrwt>
<pdfrwt beam="2">  1       21 0.11906812E-02 0.12500000E+03</pdfrwt>
<totfact> 0.41376288E+06</totfact>
</mgrwt>
</event>
<event>
 3      1 +1.7592000e+01 1.25000000e+02 7.54677100e-03 1.23506900e-01
       21 -1    0    0  502  501 +0.0000000000e+00 +0.0000000000e+00 +5.2604171872e+01 5.2604171872e+01 0.0000000000e+00 0.0000e+00 -1.0000e+00
       21 -1    0    0  501  502 -0.0000000000e+00 -0.0000000000e+00 -7.4257418394e+01 7.4257418394e+01 0.0000000000e+00 0.0000e+00 -1.0000e+00
       25  1    1    2    0    0 +0.0000000000e+00 +0.0000000000e+00 -2.1653246522e+01 1.2686159027e+02 1.2500000000e+02 0.0000e+00 0.0000e+00
<mgrwt>
<rscale>  0 0.12500000E+03</rscale>
<asrwt>0</asrwt>
<pdfrwt beam="1">  1       21 0.80929495E-02 0.12500000E+03</pdfrwt>
<pdfrwt beam="2">  1       21 0.11424218E-01 0.12500000E+03</pdfrwt>
<totfact> 0.73787990E+06</totfact>
</mgrwt>
</event>
<event>
 3      1 +1.7592000e+01 1.25000000e+02 7.54677100e-03 1.23506900e-01
       21 -1    0    0  502  501 +0.0000000000e+00 +0.0000000000e+00 +5.4354449437e+00 5.4354449437e+00 0.0000000000e+00 0.0000e+00 -1.0000e+00
       21 -1    0    0  501  502 -0.0000000000e+00 -0.0000000000e+00 -7.1866241687e+02 7.1866241687e+02 0.0000000000e+00 0.0000e+00 -1.0000e+00
       25  1    1    2    0    0 +0.0000000000e+00 +0.0000000000e+00 -7.1322697193e+02 7.2409786182e+02 1.2500000000e+02 0.0000e+00 0.0000e+00
<mgrwt>
<rscale>  0 0.12500000E+03</rscale>
<asrwt>0</asrwt>
<pdfrwt beam="1">  1       21 0.83622270E-03 0.12500000E+03</pdfrwt>
<pdfrwt beam="2">  1       21 0.11056340E+00 0.12500000E+03</pdfrwt>
<totfact> 0.32001551E+06</totfact>
</mgrwt>
</event>
<event>
 3      1 +1.7592000e+01 1.25000000e+02 7.54677100e-03 1.23506900e-01
       21 -1    0    0  502  501 +0.0000000000e+00 +0.0000000000e+00 +7.3961204725e+00 7.3961204725e+00 0.0000000000e+00 0.0000e+00 1.0000e+00
       21 -1    0    0  501  502 -0.0000000000e+00 -0.0000000000e+00 -5.2814850901e+02 5.2814850901e+02 0.0000000000e+00 0.0000e+00 1.0000e+00
       25  1    1    2    0    0 +0.0000000000e+00 +0.0000000000e+00 -5.2075238854e+02 5.3554462948e+02 1.2500000000e+02 0.0000e+00 0.0000e+00
<mgrwt>
<rscale>  0 0.12500000E+03</rscale>
<asrwt>0</asrwt>
<pdfrwt beam="1">  1       21 0.11378644E-02 0.12500000E+03</pdfrwt>
<pdfrwt beam="2">  1       21 0.81253637E-01 0.12500000E+03</pdfrwt>
<totfact> 0.40179755E+06</totfact>
</mgrwt>
</event>
<event>
 3      1 +1.7592000e+01 1.25000000e+02 7.54677100e-03 1.23506900e-01
       21 -1    0    0  502  501 +0.0000000000e+00 +0.0000000000e+00 +6.5590231649e+02 6.5590231649e+02 0.0000000000e+00 0.0000e+00 1.0000e+00
       21 -1    0    0  501  502 -0.0000000000e+00 -0.0000000000e+00 -5.9555362160e+00 5.9555362160e+00 0.0000000000e+00 0.0000e+00 1.0000e+00
       25  1    1    2    0    0 +0.0000000000e+00 +0.0000000000e+00 +6.4994678027e+02 6.6185785270e+02 1.2500000000e+02 0.0000e+00 0.0000e+00
<mgrwt>
<rscale>  0 0.12500000E+03</rscale>
<asrwt>0</asrwt>
<pdfrwt beam="1">  1       21 0.10090799E+00 0.12500000E+03</pdfrwt>
<pdfrwt beam="2">  1       21 0.91623686E-03 0.12500000E+03</pdfrwt>
<totfact> 0.34433051E+06</totfact>
</mgrwt>
</event>
<event>
 3      1 +1.7592000e+01 1.25000000e+02 7.54677100e-03 1.23506900e-01
       21 -1    0    0  502  501 +0.0000000000e+00 +0.0000000000e+00 +1.5441247477e+02 1.5441247477e+02 0.0000000000e+00 0.0000e+00 1.0000e+00
       21 -1    0    0  501  502 -0.0000000000e+00 -0.0000000000e+00 -2.5297502717e+01 2.5297502717e+01 0.0000000000e+00 0.0000e+00 1.0000e+00
       25  1    1    2    0    0 +0.0000000000e+00 +0.0000000000e+00 +1.2911497205e+02 1.7970997748e+02 1.2500000000e+02 0.0000e+00 0.0000e+00
<mgrwt>
<rscale>  0 0.12500000E+03</rscale>
<asrwt>0</asrwt>
<pdfrwt beam="1">  1       21 0.23755765E-01 0.12500000E+03</pdfrwt>
<pdfrwt beam="2">  1       21 0.38919236E-02 0.12500000E+03</pdfrwt>
<totfact> 0.67184823E+06</totfact>
</mgrwt>
</event>
<event>
 3      1 +1.7592000e+01 1.25000000e+02 7.54677100e-03 1.23506900e-01
       21 -1    0    0  502  501 +0.0000000000e+00 +0.0000000000e+00 +2.8728504950e+02 2.8728504950e+02 0.0000000000e+00 0.0000e+00 -1.0000e+00
       21 -1    0    0  501  502 -0.0000000000e+00 -0.0000000000e+00 -1.3597122464e+01 1.3597122464e+01 0.0000000000e+00 0.0000e+00 -1.0000e+00
       25  1    1    2    0    0 +0.0000000000e+00 +0.0000000000e+00 +2.7368792703e+02 3.0088217196e+02 1.2500000000e+02 0.0000e+00 0.0000e+00
<mgrwt>
<rscale>  0 0.12500000E+03</rscale>
<asrwt>0</asrwt>
<pdfrwt beam="1">  1       21 0.44197695E-01 0.12500000E+03</pdfrwt>
<pdfrwt beam="2">  1       21 0.20918652E-02 0.12500000E+03</pdfrwt>
<totfact> 0.55382943E+06</totfact>
</mgrwt>
</event>
<event>
 3      1 +1.7592000e+01 1.25000000e+02 7.54677100e-03 1.23506900e-01
       21 -1    0    0  502  501 +0.0000000000e+00 +0.0000000000e+00 +4.9484471869e+01 4.9484471869e+01 0.0000000000e+00 0.0000e+00 -1.0000e+00
       21 -1    0    0  501  502 -0.0000000000e+00 -0.0000000000e+00 -7.8938904518e+01 7.8938904518e+01 0.0000000000e+00 0.0000e+00 -1.0000e+00
       25  1    1    2    0    0 +0.0000000000e+00 +0.0000000000e+00 -2.9454432650e+01 1.2842337639e+02 1.2500000000e+02 0.0000e+00 0.0000e+00
<mgrwt>
<rscale>  0 0.12500000E+03</rscale>
<asrwt>0</asrwt>
<pdfrwt beam="1">  1       21 0.76129956E-02 0.12500000E+03</pdfrwt>
<pdfrwt beam="2">  1       21 0.12144447E-01 0.12500000E+03</pdfrwt>
<totfact> 0.73576443E+06</totfact>
</mgrwt>
</event>
<event>
 3      1 +1.7592000e+01 1.25000000e+02 7.54677100e-03 1.23506900e-01
       21 -1    0    0  502  501 +0.0000000000e+00 +0.0000000000e+00 +1.6489100756e+02 1.6489100756e+02 0.0000000000e+00 0.0000e+00 1.0000e+00
       21 -1    0    0  501  502 -0.0000000000e+00 -0.0000000000e+00 -2.3689891024e+01 2.3689891024e+01 0.0000000000e+00 0.0000e+00 1.0000e+00
       25  1    1    2    0    0 +0.0000000000e+00 +0.0000000000e+00 +1.4120111654e+02 1.8858089859e+02 1.2500000000e+02 0.0000e+00 0.0000e+00
<mgrwt>
<rscale>  0 0.12500000E+03</rscale>
<asrwt>0</asrwt>
<pdfrwt beam="1">  1       21 0.25367847E-01 0.12500000E+03</pdfrwt>
<pdfrwt beam="2">  1       21 0.36445987E-02 0.12500000E+03</pdfrwt>
<totfact> 0.66180532E+06</totfact>
</mgrwt>
</event>
<event>
 3      1 +1.7592000e+01 1.25000000e+02 7.54677100e-03 1.23506900e-01
       21 -1    0    0  502  501 +0.0000000000e+00 +0.0000000000e+00 +9.9240500862e+00 9.9240500862e+00 0.0000000000e+00 0.0000e+00 1.0000e+00
       21 -1    0    0  501  502 -0.0000000000e+00 -0.0000000000e+00 -3.9361449873e+02 3.9361449873e+02 0.0000000000e+00 0.0000e+00 1.0000e+00
       25  1    1    2    0    0 +0.0000000000e+00 +0.0000000000e+00 -3.8369044864e+02 4.0353854881e+02 1.2500000000e+02 0.0000e+00 0.0000e+00
<mgrwt>
<rscale>  0 0.12500000E+03</rscale>
<asrwt>0</asrwt>
<pdfrwt beam="1">  1       21 0.15267771E-02 0.12500000E+03</pdfrwt>
<pdfrwt beam="2">  1       21 0.60556068E-01 0.12500000E+03</pdfrwt>
<totfact> 0.47807528E+06</totfact>
</mgrwt>
</event>
<event>
 3      1 +1.7592000e+01 1.25000000e+02 7.54677100e-03 1.23506900e-01
       21 -1    0    0  502  501 +0.0000000000e+00 +0.0000000000e+00 +5.7367777845e+00 5.7367777845e+00 0.0000000000e+00 0.0000e+00 1.0000e+00
       21 -1    0    0  501  502 -0.0000000000e+00 -0.0000000000e+00 -6.8091359762e+02 6.8091359762e+02 0.0000000000e+00 0.0000e+00 1.0000e+00
       25  1    1    2    0    0 +0.0000000000e+00 +0.0000000000e+00 -6.7517681983e+02 6.8665037540e+02 1.2500000000e+02 0.0000e+00 0.0000e+00
<mgrwt>
<rscale>  0 0.12500000E+03</rscale>
<asrwt>0</asrwt>
<pdfrwt beam="1">  1       21 0.88258106E-03 0.12500000E+03</pdfrwt>
<pdfrwt beam="2">  1       21 0.10475595E+00 0.12500000E+03</pdfrwt>
<totfact> 0.33431194E+06</totfact>
</mgrwt>
</event>
<event>
 3      1 +1.7592000e+01 1.25000000e+02 7.54677100e-03 1.23506900e-01
       21 -1    0    0  502  501 +0.0000000000e+00 +0.0000000000e+00 +5.4877861995e+02 5.4877861995e+02 0.0000000000e+00 0.0000e+00 1.0000e+00
       21 -1    0    0  501  502 -0.0000000000e+00 -0.0000000000e+00 -7.1180797829e+00 7.1180797829e+00 0.0000000000e+00 0.0000e+00 1.0000e+00
       25  1    1    2    0    0 +0.0000000000e+00 +0.0000000000e+00 +5.4166054017e+02 5.5589669974e+02 1.2500000000e+02 0.0000e+00 0.0000e+00
<mgrwt>
<rscale>  0 0.12500000E+03</rscale>
<asrwt>0</asrwt>
<pdfrwt beam="1">  1       21 0.84427446E-01 0.12500000E+03</pdfrwt>
<pdfrwt beam="2">  1       21 0.10950896E-02 0.12500000E+03</pdfrwt>
<totfact> 0.39166274E+06</totfact>
</mgrwt>
</event>
<event>
 3      1 +1.7592000e+01 1.25000000e+02 7.54677100e-03 1.23506900e-01
       21 -1    0    0  502  501 +0.0000000000e+00 +0.0000000000e+00 +4.2466467197e+00 4.2466467197e+00 0.0000000000e+00 0.0000e+00 1.0000e+00
       21 -1    0    0  501  502 -0.0000000000e+00 -0.0000000000e+00 -9.1984341007e+02 9.1984341007e+02 0.0000000000e+00 0.0000e+00 1.0000e+00
       25  1    1    2    0    0 +0.0000000000e+00 +0.0000000000e+00 -9.1559676335e+02 9.2409005679e+02 1.2500000000e+02 0.0000e+00 0.0000e+00
<mgrwt>
<rscale>  0 0.12500000E+03</rscale>
<asrwt>0</asrwt>
<pdfrwt beam="1">  1       21 0.65332939E-03 0.12500000E+03</pdfrwt>
<pdfrwt beam="2">  1       21 0.14151456E+00 0.12500000E+03</pdfrwt>
<totfact> 0.25618131E+06</totfact>
</mgrwt>
</event>
<event>
 3      1 +1.7592000e+01 1.25000000e+02 7.54677100e-03 1.23506900e-01
       21 -1    0    0  502  501 +0.0000000000e+00 +0.0000000000e+00 +3.4838851916e+02 3.4838851916e+02 0.0000000000e+00 0.0000e+00 -1.0000e+00
       21 -1    0    0  501  502 -0.0000000000e+00 -0.0000000000e+00 -1.1212338482e+01 1.1212338482e+01 0.0000000000e+00 0.0000e+00 -1.0000e+00
       25  1    1    2    0    0 +0.0000000000e+00 +0.0000000000e+00 +3.3717618068e+02 3.5960085764e+02 1.2500000000e+02 0.0000e+00 0.0000e+00
<mgrwt>
<rscale>  0 0.12500000E+03</rscale>
<asrwt>0</asrwt>
<pdfrwt beam="1">  1       21 0.53598225E-01 0.12500000E+03</pdfrwt>
<pdfrwt beam="2">  1       21 0.17249754E-02 0.12500000E+03</pdfrwt>
<totfact> 0.50837108E+06</totfact>
</mgrwt>
</event>
<event>
 3      1 +1.7592000e+01 1.25000000e+02 7.54677100e-03 1.23506900e-01
       21 -1    0    0  502  501 +0.0000000000e+00 +0.0000000000e+00 +9.1391146659e+01 9.1391146659e+01 0.0000000000e+00 0.0000e+00 1.0000e+00
       21 -1    0    0  501  502 -0.0000000000e+00 -0.0000000000e+00 -4.2742105147e+01 4.2742105147e+01 0.0000000000e+00 0.0000e+00 1.0000e+00
       25  1    1    2    0    0 +0.0000000000e+00 +0.0000000000e+00 +4.8649041513e+01 1.3413325181e+02 1.2500000000e+02 0.0000e+00 0.0000e+00
<mgrwt>
<rscale>  0 0.12500000E+03</rscale>
<asrwt>0</asrwt>
<pdfrwt beam="1">  1       21 0.14060176E-01 0.12500000E+03</pdfrwt>
<pdfrwt beam="2">  1       21 0.65757085E-02 0.12500000E+03</pdfrwt>
<totfact> 0.72811441E+06</totfact>
</mgrwt>
</event>
<event>
 3      1 +1.7592000e+01 1.25000000e+02 7.54677100e-03 1.23506900e-01
       21 -1    0    0  502  501 +0.0000000000e+00 +0.0000000000e+00 +1.6254496588e+01 1.6254496588e+01 0.0000000000e+00 0.0000e+00 1.0000e+00
       21 -1    0    0  501  502 -0.0000000000e+00 -0.0000000000e+00 -2.4031811622e+02 2.4031811622e+02 0.0000000000e+00 0.0000e+00 1.0000e+00
       25  1    1    2    0    0 +0.0000000000e+00 +0.0000000000e+00 -2.2406361963e+02 2.5657261281e+02 1.2500000000e+02 0.0000e+00 0.0000e+00
<mgrwt>
<rscale>  0 0.12500000E+03</rscale>
<asrwt>0</asrwt>
<pdfrwt beam="1">  1       21 0.25006918E-02 0.12500000E+03</pdfrwt>
<pdfrwt beam="2">  1       21 0.36972017E-01 0.12500000E+03</pdfrwt>
<totfact> 0.59264848E+06</totfact>
</mgrwt>
</event>
<event>
 3      1 +1.7592000e+01 1.25000000e+02 7.54677100e-03 1.23506900e-01
       21 -1    0    0  502  501 +0.0000000000e+00 +0.0000000000e+00 +1.3721971593e+02 1.3721971593e+02 0.0000000000e+00 0.0000e+00 -1.0000e+00
       21 -1    0    0  501  502 -0.0000000000e+00 -0.0000000000e+00 -2.8467119127e+01 2.8467119127e+01 0.0000000000e+00 0.0000e+00 -1.0000e+00
       25  1    1    2    0    0 +0.0000000000e+00 +0.0000000000e+00 +1.0875259681e+02 1.6568683506e+02 1.2500000000e+02 0.0000e+00 0.0000e+00
<mgrwt>
<rscale>  0 0.12500000E+03</rscale>
<asrwt>0</asrwt>
<pdfrwt beam="1">  1       21 0.21110725E-01 0.12500000E+03</pdfrwt>
<pdfrwt beam="2">  1       21 0.43795569E-02 0.12500000E+03</pdfrwt>
<totfact> 0.68831217E+06</totfact>
</mgrwt>
</event>
<event>
 3      1 +1.7592000e+01 1.25000000e+02 7.54677100e-03 1.23506900e-01
       21 -1    0    0  502  501 +0.0000000000e+00 +0.0000000000e+00 +1.0194375810e+02 1.0194375810e+02 0.0000000000e+00 0.0000e+00 -1.0000e+00
       21 -1    0    0  501  502 -0.0000000000e+00 -0.0000000000e+00 -3.8317696669e+01 3.8317696669e+01 0.0000000000e+00 0.0000e+00 -1.0000e+00
       25  1    1    2    0    0 +0.0000000000e+00 +0.0000000000e+00 +6.3626061426e+01 1.4026145476e+02 1.2500000000e+02 0.0000e+00 0.0000e+00
<mgrwt>
<rscale>  0 0.12500000E+03</rscale>
<asrwt>0</asrwt>
<pdfrwt beam="1">  1       21 0.15683655E-01 0.12500000E+03</pdfrwt>
<pdfrwt beam="2">  1       21 0.58950303E-02 0.12500000E+03</pdfrwt>
<totfact> 0.72005194E+06</totfact>
</mgrwt>
</event>
<event>
 3      1 +1.7592000e+01 1.25000000e+02 7.54677100e-03 1.23506900e-01
       21 -1    0    0  502  501 +0.0000000000e+00 +0.0000000000e+00 +1.0738583253e+03 1.0738583253e+03 0.0000000000e+00 0.0000e+00 1.0000e+00
       21 -1    0    0  501  502 -0.0000000000e+00 -0.0000000000e+00 -3.6375841281e+00 3.6375841281e+00 0.0000000000e+00 0.0000e+00 1.0000e+00
       25  1    1    2    0    0 +0.0000000000e+00 +0.0000000000e+00 +1.0702207412e+03 1.0774959094e+03 1.2500000000e+02 0.0000e+00 0.0000e+00
<mgrwt>
<rscale>  0 0.12500000E+03</rscale>
<asrwt>0</asrwt>
<pdfrwt beam="1">  1       21 0.16520872E+00 0.12500000E+03</pdfrwt>
<pdfrwt beam="2">  1       21 0.55962918E-03 0.12500000E+03</pdfrwt>
<totfact> 0.21759000E+06</totfact>
</mgrwt>
</event>
<event>
 3      1 +1.7592000e+01 1.25000000e+02 7.54677100e-03 1.23506900e-01
       21 -1    0    0  502  501 +0.0000000000e+00 +0.0000000000e+00 +2.6903318103e+01 2.6903318103e+01 0.0000000000e+00 0.0000e+00 1.0000e+00
       21 -1    0    0  501  502 -0.0000000000e+00 -0.0000000000e+00 -1.4519584480e+02 1.4519584480e+02 0.0000000000e+00 0.0000e+00 1.0000e+00
       25  1    1    2    0    0 +0.0000000000e+00 +0.0000000000e+00 -1.1829252670e+02 1.7209916291e+02 1.2500000000e+02 0.0000e+00 0.0000e+00
<mgrwt>
<rscale>  0 0.12500000E+03</rscale>
<asrwt>0</asrwt>
<pdfrwt beam="1">  1       21 0.41389719E-02 0.12500000E+03</pdfrwt>
<pdfrwt beam="2">  1       21 0.22337823E-01 0.12500000E+03</pdfrwt>
<totfact> 0.68069659E+06</totfact>
</mgrwt>
</event>
<event>
 3      1 +1.7592000e+01 1.25000000e+02 7.54677100e-03 1.23506900e-01
       21 -1    0    0  502  501 +0.0000000000e+00 +0.0000000000e+00 +9.1628822726e+00 9.1628822726e+00 0.0000000000e+00 0.0000e+00 1.0000e+00
       21 -1    0    0  501  502 -0.0000000000e+00 -0.0000000000e+00 -4.2631236371e+02 4.2631236371e+02 0.0000000000e+00 0.0000e+00 1.0000e+00
       25  1    1    2    0    0 +0.0000000000e+00 +0.0000000000e+00 -4.1714948143e+02 4.3547524598e+02 1.2500000000e+02 0.0000e+00 0.0000e+00
<mgrwt>
<rscale>  0 0.12500000E+03</rscale>
<asrwt>0</asrwt>
<pdfrwt beam="1">  1       21 0.14096740E-02 0.12500000E+03</pdfrwt>
<pdfrwt beam="2">  1       21 0.65586527E-01 0.12500000E+03</pdfrwt>
<totfact> 0.45774007E+06</totfact>
</mgrwt>
</event>
<event>
 3      1 +1.7592000e+01 1.25000000e+02 7.54677100e-03 1.23506900e-01
       21 -1    0    0  502  501 +0.0000000000e+00 +0.0000000000e+00 +2.3745034132e+02 2.3745034132e+02 0.0000000000e+00 0.0000e+00 1.0000e+00
       21 -1    0    0  501  502 -0.0000000000e+00 -0.0000000000e+00 -1.6450808107e+01 1.6450808107e+01 0.0000000000e+00 0.0000e+00 1.0000e+00
       25  1    1    2    0    0 +0.0000000000e+00 +0.0000000000e+00 +2.2099953321e+02 2.5390114942e+02 1.2500000000e+02 0.0000e+00 0.0000e+00
<mgrwt>
<rscale>  0 0.12500000E+03</rscale>
<asrwt>0</asrwt>
<pdfrwt beam="1">  1       21 0.36530819E-01 0.12500000E+03</pdfrwt>
<pdfrwt beam="2">  1       21 0.25308937E-02 0.12500000E+03</pdfrwt>
<totfact> 0.59512835E+06</totfact>
</mgrwt>
</event>
<event>
 3      1 +1.7592000e+01 1.25000000e+02 7.54677100e-03 1.23506900e-01
       21 -1    0    0  502  501 +0.0000000000e+00 +0.0000000000e+00 +2.9922501839e+01 2.9922501839e+01 0.0000000000e+00 0.0000e+00 -1.0000e+00
       21 -1    0    0  501  502 -0.0000000000e+00 -0.0000000000e+00 -1.3054556805e+02 1.3054556805e+02 0.0000000000e+00 0.0000e+00 -1.0000e+00
       25  1    1    2    0    0 +0.0000000000e+00 +0.0000000000e+00 -1.0062306621e+02 1.6046806989e+02 1.2500000000e+02 0.0000e+00 0.0000e+00
<mgrwt>
<rscale>  0 0.12500000E+03</rscale>
<asrwt>0</asrwt>
<pdfrwt beam="1">  1       21 0.46034618E-02 0.12500000E+03</pdfrwt>
<pdfrwt beam="2">  1       21 0.20083934E-01 0.12500000E+03</pdfrwt>
<totfact> 0.69462348E+06</totfact>
</mgrwt>
</event>
<event>
 3      1 +1.7592000e+01 1.25000000e+02 7.54677100e-03 1.23506900e-01
       21 -1    0    0  502  501 +0.0000000000e+00 +0.0000000000e+00 +3.6827410079e+01 3.6827410079e+01 0.0000000000e+00 0.0000e+00 -1.0000e+00
       21 -1    0    0  501  502 -0.0000000000e+00 -0.0000000000e+00 -1.0606909342e+02 1.0606909342e+02 0.0000000000e+00 0.0000e+00 -1.0000e+00
       25  1    1    2    0    0 +0.0000000000e+00 +0.0000000000e+00 -6.9241683340e+01 1.4289650350e+02 1.2500000000e+02 0.0000e+00 0.0000e+00
<mgrwt>
<rscale>  0 0.12500000E+03</rscale>
<asrwt>0</asrwt>
<pdfrwt beam="1">  1       21 0.56657555E-02 0.12500000E+03</pdfrwt>
<pdfrwt beam="2">  1       21 0.16318322E-01 0.12500000E+03</pdfrwt>
<totfact> 0.71663395E+06</totfact>
</mgrwt>
</event>
<event>
 3      1 +1.7592000e+01 1.25000000e+02 7.54677100e-03 1.23506900e-01
       21 -1    0    0  502  501 +0.0000000000e+00 +0.0000000000e+00 +8.0299344589e+01 8.0299344589e+01 0.0000000000e+00 0.0000e+00 -1.0000e+00
       21 -1    0    0  501  502 -0.0000000000e+00 -0.0000000000e+00 -4.8646100662e+01 4.8646100662e+01 0.0000000000e+00 0.0000e+00 -1.0000e+00
       25  1    1    2    0    0 +0.0000000000e+00 +0.0000000000e+00 +3.1653243927e+01 1.2894544525e+02 1.2500000000e+02 0.0000e+00 0.0000e+00
<mgrwt>
<rscale>  0 0.12500000E+03</rscale>
<asrwt>0</asrwt>
<pdfrwt beam="1">  1       21 0.12353745E-01 0.12500000E+03</pdfrwt>
<pdfrwt beam="2">  1       21 0.74840155E-02 0.12500000E+03</pdfrwt>
<totfact> 0.73506208E+06</totfact>
</mgrwt>
</event>
<event>
 3      1 +1.7592000e+01 1.25000000e+02 7.54677100e-03 1.23506900e-01
       21 -1    0    0  502  501 +0.0000000000e+00 +0.0000000000e+00 +1.5585101024e+02 1.5585101024e+02 0.0000000000e+00 0.0000e+00 1.0000e+00
       21 -1    0    0  501  502 -0.0000000000e+00 -0.0000000000e+00 -2.5064001793e+01 2.5064001793e+01 0.0000000000e+00 0.0000e+00 1.0000e+00
       25  1    1    2    0    0 +0.0000000000e+00 +0.0000000000e+00 +1.3078700844e+02 1.8091501203e+02 1.2500000000e+02 0.0000e+00 0.0000e+00
<mgrwt>
<rscale>  0 0.12500000E+03</rscale>
<asrwt>0</asrwt>
<pdfrwt beam="1">  1       21 0.23977078E-01 0.12500000E+03</pdfrwt>
<pdfrwt beam="2">  1       21 0.38560004E-02 0.12500000E+03</pdfrwt>
<totfact> 0.67046724E+06</totfact>
</mgrwt>
</event>
<event>
 3      1 +1.7592000e+01 1.25000000e+02 7.54677100e-03 1.23506900e-01
       21 -1    0    0  502  501 +0.0000000000e+00 +0.0000000000e+00 +5.0347739929e+00 5.0347739929e+00 0.0000000000e+00 0.0000e+00 1.0000e+00
       21 -1    0    0  501  502 -0.0000000000e+00 -0.0000000000e+00 -7.7585409108e+02 7.7585409108e+02 0.0000000000e+00 0.0000e+00 1.0000e+00
       25  1    1    2    0    0 +0.0000000000e+00 +0.0000000000e+00 -7.7081931708e+02 7.8088886507e+02 1.2500000000e+02 0.0000e+00 0.0000e+00
<mgrwt>
<rscale>  0 0.12500000E+03</rscale>
<asrwt>0</asrwt>
<pdfrwt beam="1">  1       21 0.77458036E-03 0.12500000E+03</pdfrwt>
<pdfrwt beam="2">  1       21 0.11936221E+00 0.12500000E+03</pdfrwt>
<totfact> 0.30005850E+06</totfact>
</mgrwt>
</event>
<event>
 3      1 +1.7592000e+01 1.25000000e+02 7.54677100e-03 1.23506900e-01
       21 -1    0    0  502  501 +0.0000000000e+00 +0.0000000000e+00 +3.4514938010e+00 3.4514938010e+00 0.0000000000e+00 0.0000e+00 -1.0000e+00
       21 -1    0    0  501  502 -0.0000000000e+00 -0.0000000000e+00 -1.1317563424e+03 1.1317563424e+03 0.0000000000e+00 0.0000e+00 -1.0000e+00
       25  1    1    2    0    0 +0.0000000000e+00 +0.0000000000e+00 -1.1283048486e+03 1.1352078362e+03 1.2500000000e+02 0.0000e+00 0.0000e+00
<mgrwt>
<rscale>  0 0.12500000E+03</rscale>
<asrwt>0</asrwt>
<pdfrwt beam="1">  1       21 0.53099799E-03 0.12500000E+03</pdfrwt>
<pdfrwt beam="2">  1       21 0.17411671E+00 0.12500000E+03</pdfrwt>
<totfact> 0.20484165E+06</totfact>
</mgrwt>
</event>
<event>
 3      1 +1.7592000e+01 1.25000000e+02 7.54677100e-03 1.23506900e-01
       21 -1    0    0  502  501 +0.0000000000e+00 +0.0000000000e+00 +9.6816919932e+01 9.6816919932e+01 0.0000000000e+00 0.0000e+00 1.0000e+00
       21 -1    0    0  501  502 -0.0000000000e+00 -0.0000000000e+00 -4.0346769994e+01 4.0346769994e+01 0.0000000000e+00 0.0000e+00 1.0000e+00
       25  1    1    2    0    0 +0.0000000000e+00 +0.0000000000e+00 +5.6470149938e+01 1.3716368993e+02 1.2500000000e+02 0.0000e+00 0.0000e+00
<mgrwt>
<rscale>  0 0.12500000E+03</rscale>
<asrwt>0</asrwt>
<pdfrwt beam="1">  1       21 0.14894911E-01 0.12500000E+03</pdfrwt>
<pdfrwt beam="2">  1       21 0.62071954E-02 0.12500000E+03</pdfrwt>
<totfact> 0.72411233E+06</totfact>
</mgrwt>
</event>
<event>
 3      1 +1.7592000e+01 1.25000000e+02 7.54677100e-03 1.23506900e-01
       21 -1    0    0  502  501 +0.0000000000e+00 +0.0000000000e+00 +1.5915391221e+01 1.5915391221e+01 0.0000000000e+00 0.0000e+00 1.0000e+00
       21 -1    0    0  501  502 -0.0000000000e+00 -0.0000000000e+00 -2.4543851583e+02 2.4543851583e+02 0.0000000000e+00 0.0000e+00 1.0000e+00
       25  1    1    2    0    0 +0.0000000000e+00 +0.0000000000e+00 -2.2952312461e+02 2.6135390705e+02 1.2500000000e+02 0.0000e+00 0.0000e+00
<mgrwt>
<rscale>  0 0.12500000E+03</rscale>
<asrwt>0</asrwt>
<pdfrwt beam="1">  1       21 0.24485219E-02 0.12500000E+03</pdfrwt>
<pdfrwt beam="2">  1       21 0.37759770E-01 0.12500000E+03</pdfrwt>
<totfact> 0.58825401E+06</totfact>
</mgrwt>
</event>
<event>
 3      1 +1.7592000e+01 1.25000000e+02 7.54677100e-03 1.23506900e-01
       21 -1    0    0  502  501 +0.0000000000e+00 +0.0000000000e+00 +2.0035876375e+01 2.0035876375e+01 0.0000000000e+00 0.0000e+00 -1.0000e+00
       21 -1    0    0  501  502 -0.0000000000e+00 -0.0000000000e+00 -1.9496277212e+02 1.9496277212e+02 0.0000000000e+00 0.0000e+00 -1.0000e+00
       25  1    1    2    0    0 +0.0000000000e+00 +0.0000000000e+00 -1.7492689574e+02 2.1499864849e+02 1.2500000000e+02 0.0000e+00 0.0000e+00
<mgrwt>
<rscale>  0 0.12500000E+03</rscale>
<asrwt>0</asrwt>
<pdfrwt beam="1">  1       21 0.30824424E-02 0.12500000E+03</pdfrwt>
<pdfrwt beam="2">  1       21 0.29994274E-01 0.12500000E+03</pdfrwt>
<totfact> 0.63337427E+06</totfact>
</mgrwt>
</event>
<event>
 3      1 +1.7592000e+01 1.25000000e+02 7.54677100e-03 1.23506900e-01
       21 -1    0    0  502  501 +0.0000000000e+00 +0.0000000000e+00 +2.4613323911e+02 2.4613323911e+02 0.0000000000e+00 0.0000e+00 1.0000e+00
       21 -1    0    0  501  502 -0.0000000000e+00 -0.0000000000e+00 -1.5870469239e+01 1.5870469239e+01 0.0000000000e+00 0.0000e+00 1.0000e+00
       25  1    1    2    0    0 +0.0000000000e+00 +0.0000000000e+00 +2.3026276987e+02 2.6200370835e+02 1.2500000000e+02 0.0000e+00 0.0000e+00
<mgrwt>
<rscale>  0 0.12500000E+03</rscale>
<asrwt>0</asrwt>
<pdfrwt beam="1">  1       21 0.37866649E-01 0.12500000E+03</pdfrwt>
<pdfrwt beam="2">  1       21 0.24416108E-02 0.12500000E+03</pdfrwt>
<totfact> 0.58766107E+06</totfact>
</mgrwt>
</event>
<event>
 3      1 +1.7592000e+01 1.25000000e+02 7.54677100e-03 1.23506900e-01
       21 -1    0    0  502  501 +0.0000000000e+00 +0.0000000000e+00 +5.1257407832e+01 5.1257407832e+01 0.0000000000e+00 0.0000e+00 -1.0000e+00
       21 -1    0    0  501  502 -0.0000000000e+00 -0.0000000000e+00 -7.6208496785e+01 7.6208496785e+01 0.0000000000e+00 0.0000e+00 -1.0000e+00
       25  1    1    2    0    0 +0.0000000000e+00 +0.0000000000e+00 -2.4951088952e+01 1.2746590462e+02 1.2500000000e+02 0.0000e+00 0.0000e+00
<mgrwt>
<rscale>  0 0.12500000E+03</rscale>
<asrwt>0</asrwt>
<pdfrwt beam="1">  1       21 0.78857551E-02 0.12500000E+03</pdfrwt>
<pdfrwt beam="2">  1       21 0.11724384E-01 0.12500000E+03</pdfrwt>
<totfact> 0.73705841E+06</totfact>
</mgrwt>
</event>
<event>
 3      1 +1.7592000e+01 1.25000000e+02 7.54677100e-03 1.23506900e-01
       21 -1    0    0  502  501 +0.0000000000e+00 +0.0000000000e+00 +8.7286233189e+00 8.7286233189e+00 0.0000000000e+00 0.0000e+00 1.0000e+00
       21 -1    0    0  501  502 -0.0000000000e+00 -0.0000000000e+00 -4.4752188945e+02 4.4752188945e+02 0.0000000000e+00 0.0000e+00 1.0000e+00
       25  1    1    2    0    0 +0.0000000000e+00 +0.0000000000e+00 -4.3879326613e+02 4.5625051277e+02 1.2500000000e+02 0.0000e+00 0.0000e+00
<mgrwt>
<rscale>  0 0.12500000E+03</rscale>
<asrwt>0</asrwt>
<pdfrwt beam="1">  1       21 0.13428650E-02 0.12500000E+03</pdfrwt>
<pdfrwt beam="2">  1       21 0.68849526E-01 0.12500000E+03</pdfrwt>
<totfact> 0.44520597E+06</totfact>
</mgrwt>
</event>
<event>
 3      1 +1.7592000e+01 1.25000000e+02 7.54677100e-03 1.23506900e-01
       21 -1    0    0  502  501 +0.0000000000e+00 +0.0000000000e+00 +9.4253661296e+01 9.4253661296e+01 0.0000000000e+00 0.0000e+00 -1.0000e+00
       21 -1    0    0  501  502 -0.0000000000e+00 -0.0000000000e+00 -4.1444013382e+01 4.1444013382e+01 0.0000000000e+00 0.0000e+00 -1.0000e+00
       25  1    1    2    0    0 +0.0000000000e+00 +0.0000000000e+00 +5.2809647914e+01 1.3569767468e+02 1.2500000000e+02 0.0000e+00 0.0000e+00
<mgrwt>
<rscale>  0 0.12500000E+03</rscale>
<asrwt>0</asrwt>
<pdfrwt beam="1">  1       21 0.14500563E-01 0.12500000E+03</pdfrwt>
<pdfrwt beam="2">  1       21 0.63760021E-02 0.12500000E+03</pdfrwt>
<totfact> 0.72604227E+06</totfact>
</mgrwt>
</event>
<event>
 3      1 +1.7592000e+01 1.25000000e+02 7.54677100e-03 1.23506900e-01
       21 -1    0    0  502  501 +0.0000000000e+00 +0.0000000000e+00 +1.0445807159e+03 1.0445807159e+03 0.0000000000e+00 0.0000e+00 -1.0000e+00
       21 -1    0    0  501  502 -0.0000000000e+00 -0.0000000000e+00 -3.7395386882e+00 3.7395386882e+00 0.0000000000e+00 0.0000e+00 -1.0000e+00
       25  1    1    2    0    0 +0.0000000000e+00 +0.0000000000e+00 +1.0408411772e+03 1.0483202546e+03 1.2500000000e+02 0.0000e+00 0.0000e+00
<mgrwt>
<rscale>  0 0.12500000E+03</rscale>
<asrwt>0</asrwt>
<pdfrwt beam="1">  1       21 0.16070449E+00 0.12500000E+03</pdfrwt>
<pdfrwt beam="2">  1       21 0.57531448E-03 0.12500000E+03</pdfrwt>
<totfact> 0.22438886E+06</totfact>
</mgrwt>
</event>
<event>
 3      1 +1.7592000e+01 1.25000000e+02 7.54677100e-03 1.23506900e-01
       21 -1    0    0  502  501 +0.0000000000e+00 +0.0000000000e+00 +4.4819165753e+01 4.4819165753e+01 0.0000000000e+00 0.0000e+00 -1.0000e+00
       21 -1    0    0  501  502 -0.0000000000e+00 -0.0000000000e+00 -8.7155794500e+01 8.7155794500e+01 0.0000000000e+00 0.0000e+00 -1.0000e+00
       25  1    1    2    0    0 +0.0000000000e+00 +0.0000000000e+00 -4.2336628747e+01 1.3197496025e+02 1.2500000000e+02 0.0000e+00 0.0000e+00
<mgrwt>
<rscale>  0 0.12500000E+03</rscale>
<asrwt>0</asrwt>
<pdfrwt beam="1">  1       21 0.68952564E-02 0.12500000E+03</pdfrwt>
<pdfrwt beam="2">  1       21 0.13408584E-01 0.12500000E+03</pdfrwt>
<totfact> 0.73099588E+06</totfact>
</mgrwt>
</event>
<event>
 3      1 +1.7592000e+01 1.25000000e+02 7.54677100e-03 1.23506900e-01
       21 -1    0    0  502  501 +0.0000000000e+00 +0.0000000000e+00 +4.0107203330e+01 4.0107203330e+01 0.0000000000e+00 0.0000e+00 -1.0000e+00
       21 -1    0    0  501  502 -0.0000000000e+00 -0.0000000000e+00 -9.7395222696e+01 9.7395222696e+01 0.0000000000e+00 0.0000e+00 -1.0000e+00
       25  1    1    2    0    0 +0.0000000000e+00 +0.0000000000e+00 -5.7288019366e+01 1.3750242603e+02 1.2500000000e+02 0.0000e+00 0.0000e+00
<mgrwt>
<rscale>  0 0.12500000E+03</rscale>
<asrwt>0</asrwt>
<pdfrwt beam="1">  1       21 0.61703391E-02 0.12500000E+03</pdfrwt>
<pdfrwt beam="2">  1       21 0.14983880E-01 0.12500000E+03</pdfrwt>
<totfact> 0.72366798E+06</totfact>
</mgrwt>
</event>
<event>
 3      1 +1.7592000e+01 1.25000000e+02 7.54677100e-03 1.23506900e-01
       21 -1    0    0  502  501 +0.0000000000e+00 +0.0000000000e+00 +1.1903707687e+02 1.1903707687e+02 0.0000000000e+00 0.0000e+00 -1.0000e+00
       21 -1    0    0  501  502 -0.0000000000e+00 -0.0000000000e+00 -3.2815405944e+01 3.2815405944e+01 0.0000000000e+00 0.0000e+00 -1.0000e+00
       25  1    1    2    0    0 +0.0000000000e+00 +0.0000000000e+00 +8.6221670929e+01 1.5185248282e+02 1.2500000000e+02 0.0000e+00 0.0000e+00
<mgrwt>
<rscale>  0 0.12500000E+03</rscale>
<asrwt>0</asrwt>
<pdfrwt beam="1">  1       21 0.18313396E-01 0.12500000E+03</pdfrwt>
<pdfrwt beam="2">  1       21 0.50485241E-02 0.12500000E+03</pdfrwt>
<totfact> 0.70527264E+06</totfact>
</mgrwt>
</event>
<event>
 3      1 +1.7592000e+01 1.25000000e+02 7.54677100e-03 1.23506900e-01
       21 -1    0    0  502  501 +0.0000000000e+00 +0.0000000000e+00 +7.6372270232e+02 7.6372270232e+02 0.0000000000e+00 0.0000e+00 -1.0000e+00
       21 -1    0    0  501  502 -0.0000000000e+00 -0.0000000000e+00 -5.1147490943e+00 5.1147490943e+00 0.0000000000e+00 0.0000e+00 -1.0000e+00
       25  1    1    2    0    0 +0.0000000000e+00 +0.0000000000e+00 +7.5860795322e+02 7.6883745141e+02 1.2500000000e+02 0.0000e+00 0.0000e+00
<mgrwt>
<rscale>  0 0.12500000E+03</rscale>
<asrwt>0</asrwt>
<pdfrwt beam="1">  1       21 0.11749571E+00 0.12500000E+03</pdfrwt>
<pdfrwt beam="2">  1       21 0.78688508E-03 0.12500000E+03</pdfrwt>
<totfact> 0.30417139E+06</totfact>
</mgrwt>
</event>
<event>
 3      1 +1.7592000e+01 1.25000000e+02 7.54677100e-03 1.23506900e-01
       21 -1    0    0  502  501 +0.0000000000e+00 +0.0000000000e+00 +8.6745343996e+02 8.6745343996e+02 0.0000000000e+00 0.0000e+00 1.0000e+00
       21 -1    0    0  501  502 -0.0000000000e+00 -0.0000000000e+00 -4.5031235338e+00 4.5031235338e+00 0.0000000000e+00 0.0000e+00 1.0000e+00
       25  1    1    2    0    0 +0.0000000000e+00 +0.0000000000e+00 +8.6295031643e+02 8.7195656349e+02 1.2500000000e+02 0.0000e+00 0.0000e+00
<mgrwt>
<rscale>  0 0.12500000E+03</rscale>
<asrwt>0</asrwt>
<pdfrwt beam="1">  1       21 0.13345424E+00 0.12500000E+03</pdfrwt>
<pdfrwt beam="2">  1       21 0.69278893E-03 0.12500000E+03</pdfrwt>
<totfact> 0.27112527E+06</totfact>
</mgrwt>
</event>
<event>
 3      1 +1.7592000e+01 1.25000000e+02 7.54677100e-03 1.23506900e-01
       21 -1    0    0  502  501 +0.0000000000e+00 +0.0000000000e+00 +8.8511248834e+01 8.8511248834e+01 0.0000000000e+00 0.0000e+00 -1.0000e+00
       21 -1    0    0  501  502 -0.0000000000e+00 -0.0000000000e+00 -4.4132808558e+01 4.4132808558e+01 0.0000000000e+00 0.0000e+00 -1.0000e+00
       25  1    1    2    0    0 +0.0000000000e+00 +0.0000000000e+00 +4.4378440276e+01 1.3264405739e+02 1.2500000000e+02 0.0000e+00 0.0000e+00
<mgrwt>
<rscale>  0 0.12500000E+03</rscale>
<asrwt>0</asrwt>
<pdfrwt beam="1">  1       21 0.13617115E-01 0.12500000E+03</pdfrwt>
<pdfrwt beam="2">  1       21 0.67896629E-02 0.12500000E+03</pdfrwt>
<totfact> 0.73009966E+06</totfact>
</mgrwt>
</event>
<event>
 3      1 +1.7592000e+01 1.25000000e+02 7.54677100e-03 1.23506900e-01
       21 -1    0    0  502  501 +0.0000000000e+00 +0.0000000000e+00 +6.5105597006e+01 6.5105597006e+01 0.0000000000e+00 0.0000e+00 1.0000e+00
       21 -1    0    0  501  502 -0.0000000000e+00 -0.0000000000e+00 -5.9998681828e+01 5.9998681828e+01 0.0000000000e+00 0.0000e+00 1.0000e+00
       25  1    1    2    0    0 +0.0000000000e+00 +0.0000000000e+00 +5.1069151780e+00 1.2510427883e+02 1.2500000000e+02 0.0000e+00 0.0000e+00
<mgrwt>
<rscale>  0 0.12500000E+03</rscale>
<asrwt>0</asrwt>
<pdfrwt beam="1">  1       21 0.10016246E-01 0.12500000E+03</pdfrwt>
<pdfrwt beam="2">  1       21 0.92305664E-02 0.12500000E+03</pdfrwt>
<totfact> 0.74029497E+06</totfact>
</mgrwt>
</event>
<event>
 3      1 +1.7592000e+01 1.25000000e+02 7.54677100e-03 1.23506900e-01
       21 -1    0    0  502  501 +0.0000000000e+00 +0.0000000000e+00 +1.0369583813e+03 1.0369583813e+03 0.0000000000e+00 0.0000e+00 -1.0000e+00
       21 -1    0    0  501  502 -0.0000000000e+00 -0.0000000000e+00 -3.7670267877e+00 3.7670267877e+00 0.0000000000e+00 0.0000e+00 -1.0000e+00
       25  1    1    2    0    0 +0.0000000000e+00 +0.0000000000e+00 +1.0331913545e+03 1.0407254081e+03 1.2500000000e+02 0.0000e+00 0.0000e+00
<mgrwt>
<rscale>  0 0.12500000E+03</rscale>
<asrwt>0</asrwt>
<pdfrwt beam="1">  1       21 0.15953183E+00 0.12500000E+03</pdfrwt>
<pdfrwt beam="2">  1       21 0.57954341E-03 0.12500000E+03</pdfrwt>
<totfact> 0.22620059E+06</totfact>
</mgrwt>
</event>
<event>
 3      1 +1.7592000e+01 1.25000000e+02 7.54677100e-03 1.23506900e-01
       21 -1    0    0  502  501 +0.0000000000e+00 +0.0000000000e+00 +1.8422567834e+01 1.8422567834e+01 0.0000000000e+00 0.0000e+00 -1.0000e+00
       21 -1    0    0  501  502 -0.0000000000e+00 -0.0000000000e+00 -2.1203613064e+02 2.1203613064e+02 0.0000000000e+00 0.0000e+00 -1.0000e+00
       25  1    1    2    0    0 +0.0000000000e+00 +0.0000000000e+00 -1.9361356280e+02 2.3045869847e+02 1.2500000000e+02 0.0000e+00 0.0000e+00
<mgrwt>
<rscale>  0 0.12500000E+03</rscale>
<asrwt>0</asrwt>
<pdfrwt beam="1">  1       21 0.28342412E-02 0.12500000E+03</pdfrwt>
<pdfrwt beam="2">  1       21 0.32620943E-01 0.12500000E+03</pdfrwt>
<totfact> 0.61768360E+06</totfact>
</mgrwt>
</event>
<event>
 3      1 +1.7592000e+01 1.25000000e+02 7.54677100e-03 1.23506900e-01
       21 -1    0    0  502  501 +0.0000000000e+00 +0.0000000000e+00 +1.2127536444e+02 1.2127536444e+02 0.0000000000e+00 0.0000e+00 1.0000e+00
       21 -1    0    0  501  502 -0.0000000000e+00 -0.0000000000e+00 -3.2209756845e+01 3.2209756845e+01 0.0000000000e+00 0.0000e+00 1.0000e+00
       25  1    1    2    0    0 +0.0000000000e+00 +0.0000000000e+00 +8.9065607598e+01 1.5348512129e+02 1.2500000000e+02 0.0000e+00 0.0000e+00
<mgrwt>
<rscale>  0 0.12500000E+03</rscale>
<asrwt>0</asrwt>
<pdfrwt beam="1">  1       21 0.18657748E-01 0.12500000E+03</pdfrwt>
<pdfrwt beam="2">  1       21 0.49553473E-02 0.12500000E+03</pdfrwt>
<totfact> 0.70324102E+06</totfact>
</mgrwt>
</event>
<event>
 3      1 +1.7592000e+01 1.25000000e+02 7.54677100e-03 1.23506900e-01
       21 -1    0    0  502  501 +0.0000000000e+00 +0.0000000000e+00 +1.3717525233e+02 1.3717525233e+02 0.0000000000e+00 0.0000e+00 -1.0000e+00
       21 -1    0    0  501  502 -0.0000000000e+00 -0.0000000000e+00 -2.8476346380e+01 2.8476346380e+01 0.0000000000e+00 0.0000e+00 -1.0000e+00
       25  1    1    2    0    0 +0.0000000000e+00 +0.0000000000e+00 +1.0869890595e+02 1.6565159871e+02 1.2500000000e+02 0.0000e+00 0.0000e+00
<mgrwt>
<rscale>  0 0.12500000E+03</rscale>
<asrwt>0</asrwt>
<pdfrwt beam="1">  1       21 0.21103885E-01 0.12500000E+03</pdfrwt>
<pdfrwt beam="2">  1       21 0.43809764E-02 0.12500000E+03</pdfrwt>
<totfact> 0.68835441E+06</totfact>
</mgrwt>
</event>
<event>
 3      1 +1.7592000e+01 1.25000000e+02 7.54677100e-03 1.23506900e-01
       21 -1    0    0  502  501 +0.0000000000e+00 +0.0000000000e+00 +1.0276437037e+01 1.0276437037e+01 0.0000000000e+00 0.0000e+00 1.0000e+00
       21 -1    0    0  501  502 -0.0000000000e+00 -0.0000000000e+00 -3.8011715401e+02 3.8011715401e+02 0.0000000000e+00 0.0000e+00 1.0000e+00
       25  1    1    2    0    0 +0.0000000000e+00 +0.0000000000e+00 -3.6984071697e+02 3.9039359105e+02 1.2500000000e+02 0.0000e+00 0.0000e+00
<mgrwt>
<rscale>  0 0.12500000E+03</rscale>
<asrwt>0</asrwt>
<pdfrwt beam="1">  1       21 0.15809900E-02 0.12500000E+03</pdfrwt>
<pdfrwt beam="2">  1       21 0.58479573E-01 0.12500000E+03</pdfrwt>
<totfact> 0.48685124E+06</totfact>
</mgrwt>
</event>
<event>
 3      1 +1.7592000e+01 1.25000000e+02 7.54677100e-03 1.23506900e-01
       21 -1    0    0  502  501 +0.0000000000e+00 +0.0000000000e+00 +2.1537319422e+01 2.1537319422e+01 0.0000000000e+00 0.0000e+00 1.0000e+00
       21 -1    0    0  501  502 -0.0000000000e+00 -0.0000000000e+00 -1.8137122468e+02 1.8137122468e+02 0.0000000000e+00 0.0000e+00 1.0000e+00
       25  1    1    2    0    0 +0.0000000000e+00 +0.0000000000e+00 -1.5983390526e+02 2.0290854411e+02 1.2500000000e+02 0.0000e+00 0.0000e+00
<mgrwt>
<rscale>  0 0.12500000E+03</rscale>
<asrwt>0</asrwt>
<pdfrwt beam="1">  1       21 0.33134339E-02 0.12500000E+03</pdfrwt>
<pdfrwt beam="2">  1       21 0.27903264E-01 0.12500000E+03</pdfrwt>
<totfact> 0.64613449E+06</totfact>
</mgrwt>
</event>
<event>
 3      1 +1.7592000e+01 1.25000000e+02 7.54677100e-03 1.23506900e-01
       21 -1    0    0  502  501 +0.0000000000e+00 +0.0000000000e+00 +6.1141480685e+01 6.1141480685e+01 0.0000000000e+00 0.0000e+00 -1.0000e+00
       21 -1    0    0  501  502 -0.0000000000e+00 -0.0000000000e+00 -6.3888704628e+01 6.3888704628e+01 0.0000000000e+00 0.0000e+00 -1.0000e+00
       25  1    1    2    0    0 +0.0000000000e+00 +0.0000000000e+00 -2.7472239425e+00 1.2503018531e+02 1.2500000000e+02 0.0000e+00 0.0000e+00
<mgrwt>
<rscale>  0 0.12500000E+03</rscale>
<asrwt>0</asrwt>
<pdfrwt beam="1">  1       21 0.94063815E-02 0.12500000E+03</pdfrwt>
<pdfrwt beam="2">  1       21 0.98290316E-02 0.12500000E+03</pdfrwt>
<totfact> 0.74039504E+06</totfact>
</mgrwt>
</event>
<event>
 3      1 +1.7592000e+01 1.25000000e+02 7.54677100e-03 1.23506900e-01
       21 -1    0    0  502  501 +0.0000000000e+00 +0.0000000000e+00 +1.1276015159e+01 1.1276015159e+01 0.0000000000e+00 0.0000e+00 -1.0000e+00
       21 -1    0    0  501  502 -0.0000000000e+00 -0.0000000000e+00 -3.4642113770e+02 3.4642113770e+02 0.0000000000e+00 0.0000e+00 -1.0000e+00
       25  1    1    2    0    0 +0.0000000000e+00 +0.0000000000e+00 -3.3514512254e+02 3.5769715286e+02 1.2500000000e+02 0.0000e+00 0.0000e+00
<mgrwt>
<rscale>  0 0.12500000E+03</rscale>
<asrwt>0</asrwt>
<pdfrwt beam="1">  1       21 0.17347714E-02 0.12500000E+03</pdfrwt>
<pdfrwt beam="2">  1       21 0.53295565E-01 0.12500000E+03</pdfrwt>
<totfact> 0.50974949E+06</totfact>
</mgrwt>
</event>
<event>
 3      1 +1.7592000e+01 1.25000000e+02 7.54677100e-03 1.23506900e-01
       21 -1    0    0  502  501 +0.0000000000e+00 +0.0000000000e+00 +1.4620813066e+03 1.4620813066e+03 0.0000000000e+00 0.0000e+00 1.0000e+00
       21 -1    0    0  501  502 -0.0000000000e+00 -0.0000000000e+00 -2.6717050429e+00 2.6717050429e+00 0.0000000000e+00 0.0000e+00 1.0000e+00
       25  1    1    2    0    0 +0.0000000000e+00 +0.0000000000e+00 +1.4594096015e+03 1.4647530116e+03 1.2500000000e+02 0.0000e+00 0.0000e+00
<mgrwt>
<rscale>  0 0.12500000E+03</rscale>
<asrwt>0</asrwt>
<pdfrwt beam="1">  1       21 0.22493495E+00 0.12500000E+03</pdfrwt>
<pdfrwt beam="2">  1       21 0.41103271E-03 0.12500000E+03</pdfrwt>
<totfact> 0.14523673E+06</totfact>
</mgrwt>
</event>
<event>
 3      1 +1.7592000e+01 1.25000000e+02 7.54677100e-03 1.23506900e-01
       21 -1    0    0  502  501 +0.0000000000e+00 +0.0000000000e+00 +7.0344587754e+01 7.0344587754e+01 0.0000000000e+00 0.0000e+00 1.0000e+00
       21 -1    0    0  501  502 -0.0000000000e+00 -0.0000000000e+00 -5.5530213834e+01 5.5530213834e+01 0.0000000000e+00 0.0000e+00 1.0000e+00
       25  1    1    2    0    0 +0.0000000000e+00 +0.0000000000e+00 +1.4814373920e+01 1.2587480159e+02 1.2500000000e+02 0.0000e+00 0.0000e+00
<mgrwt>
<rscale>  0 0.12500000E+03</rscale>
<asrwt>0</asrwt>
<pdfrwt beam="1">  1       21 0.10822244E-01 0.12500000E+03</pdfrwt>
<pdfrwt beam="2">  1       21 0.85431098E-02 0.12500000E+03</pdfrwt>
<totfact> 0.73923323E+06</totfact>
</mgrwt>
</event>
<event>
 3      1 +1.7592000e+01 1.25000000e+02 7.54677100e-03 1.23506900e-01
       21 -1    0    0  502  501 +0.0000000000e+00 +0.0000000000e+00 +5.3254803022e+00 5.3254803022e+00 0.0000000000e+00 0.0000e+00 -1.0000e+00
       21 -1    0    0  501  502 -0.0000000000e+00 -0.0000000000e+00 -7.3350191501e+02 7.3350191501e+02 0.0000000000e+00 0.0000e+00 -1.0000e+00
       25  1    1    2    0    0 +0.0000000000e+00 +0.0000000000e+00 -7.2817643471e+02 7.3882739531e+02 1.2500000000e+02 0.0000e+00 0.0000e+00
<mgrwt>
<rscale>  0 0.12500000E+03</rscale>
<asrwt>0</asrwt>
<pdfrwt beam="1">  1       21 0.81930467E-03 0.12500000E+03</pdfrwt>
<pdfrwt beam="2">  1       21 0.11284645E+00 0.12500000E+03</pdfrwt>
<totfact> 0.31465774E+06</totfact>
</mgrwt>
</event>
<event>
 3      1 +1.7592000e+01 1.25000000e+02 7.54677100e-03 1.23506900e-01
       21 -1    0    0  502  501 +0.0000000000e+00 +0.0000000000e+00 +2.3451211420e+02 2.3451211420e+02 0.0000000000e+00 0.0000e+00 -1.0000e+00
       21 -1    0    0  501  502 -0.0000000000e+00 -0.0000000000e+00 -1.6656922025e+01 1.6656922025e+01 0.0000000000e+00 0.0000e+00 -1.0000e+00
       25  1    1    2    0    0 +0.0000000000e+00 +0.0000000000e+00 +2.1785519217e+02 2.5116903622e+02 1.2500000000e+02 0.0000e+00 0.0000e+00
<mgrwt>
<rscale>  0 0.12500000E+03</rscale>
<asrwt>0</asrwt>
<pdfrwt beam="1">  1       21 0.36078784E-01 0.12500000E+03</pdfrwt>
<pdfrwt beam="2">  1       21 0.25626036E-02 0.12500000E+03</pdfrwt>
<totfact> 0.59768302E+06</totfact>
</mgrwt>
</event>
<event>
 3      1 +1.7592000e+01 1.25000000e+02 7.54677100e-03 1.23506900e-01
       21 -1    0    0  502  501 +0.0000000000e+00 +0.0000000000e+00 +1.6560646730e+01 1.6560646730e+01 0.0000000000e+00 0.0000e+00 -1.0000e+00
       21 -1    0    0  501  502 -0.0000000000e+00 -0.0000000000e+00 -2.3587545002e+02 2.3587545002e+02 0.0000000000e+00 0.0000e+00 -1.0000e+00
       25  1    1    2    0    0 +0.0000000000e+00 +0.0000000000e+00 -2.1931480329e+02 2.5243609675e+02 1.2500000000e+02 0.0000e+00 0.0000e+00
<mgrwt>
<rscale>  0 0.12500000E+03</rscale>
<asrwt>0</asrwt>
<pdfrwt beam="1">  1       21 0.25477918E-02 0.12500000E+03</pdfrwt>
<pdfrwt beam="2">  1       21 0.36288530E-01 0.12500000E+03</pdfrwt>
<totfact> 0.59649590E+06</totfact>
</mgrwt>
</event>
<event>
 3      1 +1.7592000e+01 1.25000000e+02 7.54677100e-03 1.23506900e-01
       21 -1    0    0  502  501 +0.0000000000e+00 +0.0000000000e+00 +6.6027294616e+00 6.6027294616e+00 0.0000000000e+00 0.0000e+00 1.0000e+00
       21 -1    0    0  501  502 -0.0000000000e+00 -0.0000000000e+00 -5.9161139688e+02 5.9161139688e+02 0.0000000000e+00 0.0000e+00 1.0000e+00
       25  1    1    2    0    0 +0.0000000000e+00 +0.0000000000e+00 -5.8500866742e+02 5.9821412634e+02 1.2500000000e+02 0.0000e+00 0.0000e+00
<mgrwt>
<rscale>  0 0.12500000E+03</rscale>
<asrwt>0</asrwt>
<pdfrwt beam="1">  1       21 0.10158042E-02 0.12500000E+03</pdfrwt>
<pdfrwt beam="2">  1       21 0.91017172E-01 0.12500000E+03</pdfrwt>
<totfact> 0.37173509E+06</totfact>
</mgrwt>
</event>
<event>
 3      1 +1.7592000e+01 1.25000000e+02 7.54677100e-03 1.23506900e-01
       21 -1    0    0  502  501 +0.0000000000e+00 +0.0000000000e+00 +3.2821156581e+01 3.2821156581e+01 0.0000000000e+00 0.0000e+00 1.0000e+00
       21 -1    0    0  501  502 -0.0000000000e+00 -0.0000000000e+00 -1.1901622023e+02 1.1901622023e+02 0.0000000000e+00 0.0000e+00 1.0000e+00
       25  1    1    2    0    0 +0.0000000000e+00 +0.0000000000e+00 -8.6195063652e+01 1.5183737681e+02 1.2500000000e+02 0.0000e+00 0.0000e+00
<mgrwt>
<rscale>  0 0.12500000E+03</rscale>
<asrwt>0</asrwt>
<pdfrwt beam="1">  1       21 0.50494086E-02 0.12500000E+03</pdfrwt>
<pdfrwt beam="2">  1       21 0.18310188E-01 0.12500000E+03</pdfrwt>
<totfact> 0.70529149E+06</totfact>
</mgrwt>
</event>
<event>
 3      1 +1.7592000e+01 1.25000000e+02 7.54677100e-03 1.23506900e-01
       21 -1    0    0  502  501 +0.0000000000e+00 +0.0000000000e+00 +4.6417557406e+02 4.6417557406e+02 0.0000000000e+00 0.0000e+00 -1.0000e+00
       21 -1    0    0  501  502 -0.0000000000e+00 -0.0000000000e+00 -8.4154578963e+00 8.4154578963e+00 0.0000000000e+00 0.0000e+00 -1.0000e+00
       25  1    1    2    0    0 +0.0000000000e+00 +0.0000000000e+00 +4.5576011617e+02 4.7259103196e+02 1.2500000000e+02 0.0000e+00 0.0000e+00
<mgrwt>
<rscale>  0 0.12500000E+03</rscale>
<asrwt>0</asrwt>
<pdfrwt beam="1">  1       21 0.71411607E-01 0.12500000E+03</pdfrwt>
<pdfrwt beam="2">  1       21 0.12946862E-02 0.12500000E+03</pdfrwt>
<totfact> 0.43570628E+06</totfact>
</mgrwt>
</event>
<event>
 3      1 +1.7592000e+01 1.25000000e+02 7.54677100e-03 1.23506900e-01
       21 -1    0    0  502  501 +0.0000000000e+00 +0.0000000000e+00 +1.9090620303e+01 1.9090620303e+01 0.0000000000e+00 0.0000e+00 -1.0000e+00
       21 -1    0    0  501  502 -0.0000000000e+00 -0.0000000000e+00 -2.0461619047e+02 2.0461619047e+02 0.0000000000e+00 0.0000e+00 -1.0000e+00
       25  1    1    2    0    0 +0.0000000000e+00 +0.0000000000e+00 -1.8552557016e+02 2.2370681077e+02 1.2500000000e+02 0.0000e+00 0.0000e+00
<mgrwt>
<rscale>  0 0.12500000E+03</rscale>
<asrwt>0</asrwt>
<pdfrwt beam="1">  1       21 0.29370185E-02 0.12500000E+03</pdfrwt>
<pdfrwt beam="2">  1       21 0.31479414E-01 0.12500000E+03</pdfrwt>
<totfact> 0.62445647E+06</totfact>
</mgrwt>
</event>
<event>
 3      1 +1.7592000e+01 1.25000000e+02 7.54677100e-03 1.23506900e-01
       21 -1    0    0  502  501 +0.0000000000e+00 +0.0000000000e+00 +1.1532276016e+01 1.1532276016e+01 0.0000000000e+00 0.0000e+00 -1.0000e+00
       21 -1    0    0  501  502 -0.0000000000e+00 -0.0000000000e+00 -3.3872324896e+02 3.3872324896e+02 0.0000000000e+00 0.0000e+00 -1.0000e+00
       25  1    1    2    0    0 +0.0000000000e+00 +0.0000000000e+00 -3.2719097294e+02 3.5025552497e+02 1.2500000000e+02 0.0000e+00 0.0000e+00
<mgrwt>
<rscale>  0 0.12500000E+03</rscale>
<asrwt>0</asrwt>
<pdfrwt beam="1">  1       21 0.17741965E-02 0.12500000E+03</pdfrwt>
<pdfrwt beam="2">  1       21 0.52111264E-01 0.12500000E+03</pdfrwt>
<totfact> 0.51519568E+06</totfact>
</mgrwt>
</event>
<event>
 3      1 +1.7592000e+01 1.25000000e+02 7.54677100e-03 1.23506900e-01
       21 -1    0    0  502  501 +0.0000000000e+00 +0.0000000000e+00 +4.1968481186e+01 4.1968481186e+01 0.0000000000e+00 0.0000e+00 -1.0000e+00
       21 -1    0    0  501  502 -0.0000000000e+00 -0.0000000000e+00 -9.3075800926e+01 9.3075800926e+01 0.0000000000e+00 0.0000e+00 -1.0000e+00
       25  1    1    2    0    0 +0.0000000000e+00 +0.0000000000e+00 -5.1107319740e+01 1.3504428211e+02 1.2500000000e+02 0.0000e+00 0.0000e+00
<mgrwt>
<rscale>  0 0.12500000E+03</rscale>
<asrwt>0</asrwt>
<pdfrwt beam="1">  1       21 0.64566895E-02 0.12500000E+03</pdfrwt>
<pdfrwt beam="2">  1       21 0.14319354E-01 0.12500000E+03</pdfrwt>
<totfact> 0.72690609E+06</totfact>
</mgrwt>
</event>
<event>
 3      1 +1.7592000e+01 1.25000000e+02 7.54677100e-03 1.23506900e-01
       21 -1    0    0  502  501 +0.0000000000e+00 +0.0000000000e+00 +6.9979606920e+02 6.9979606920e+02 0.0000000000e+00 0.0000e+00 1.0000e+00
       21 -1    0    0  501  502 -0.0000000000e+00 -0.0000000000e+00 -5.5819833404e+00 5.5819833404e+00 0.0000000000e+00 0.0000e+00 1.0000e+00
       25  1    1    2    0    0 +0.0000000000e+00 +0.0000000000e+00 +6.9421408586e+02 7.0537805254e+02 1.2500000000e+02 0.0000e+00 0.0000e+00
<mgrwt>
<rscale>  0 0.12500000E+03</rscale>
<asrwt>0</asrwt>
<pdfrwt beam="1">  1       21 0.10766086E+00 0.12500000E+03</pdfrwt>
<pdfrwt beam="2">  1       21 0.85876722E-03 0.12500000E+03</pdfrwt>
<totfact> 0.32703843E+06</totfact>
</mgrwt>
</event>
<event>
 3      1 +1.7592000e+01 1.25000000e+02 7.54677100e-03 1.23506900e-01
       21 -1    0    0  502  501 +0.0000000000e+00 +0.0000000000e+00 +2.1536475315e+01 2.1536475315e+01 0.0000000000e+00 0.0000e+00 -1.0000e+00
       21 -1    0    0  501  502 -0.0000000000e+00 -0.0000000000e+00 -1.8137833341e+02 1.8137833341e+02 0.0000000000e+00 0.0000e+00 -1.0000e+00
       25  1    1    2    0    0 +0.0000000000e+00 +0.0000000000e+00 -1.5984185809e+02 2.0291480872e+02 1.2500000000e+02 0.0000e+00 0.0000e+00
<mgrwt>
<rscale>  0 0.12500000E+03</rscale>
<asrwt>0</asrwt>
<pdfrwt beam="1">  1       21 0.33133038E-02 0.12500000E+03</pdfrwt>
<pdfrwt beam="2">  1       21 0.27904360E-01 0.12500000E+03</pdfrwt>
<totfact> 0.64612775E+06</totfact>
</mgrwt>
</event>
<event>
 3      1 +1.7592000e+01 1.25000000e+02 7.54677100e-03 1.23506900e-01
       21 -1    0    0  502  501 +0.0000000000e+00 +0.0000000000e+00 +7.2048037090e+01 7.2048037090e+01 0.0000000000e+00 0.0000e+00 -1.0000e+00
       21 -1    0    0  501  502 -0.0000000000e+00 -0.0000000000e+00 -5.4217299426e+01 5.4217299426e+01 0.0000000000e+00 0.0000e+00 -1.0000e+00
       25  1    1    2    0    0 +0.0000000000e+00 +0.0000000000e+00 +1.7830737664e+01 1.2626533652e+02 1.2500000000e+02 0.0000e+00 0.0000e+00
<mgrwt>
<rscale>  0 0.12500000E+03</rscale>
<asrwt>0</asrwt>
<pdfrwt beam="1">  1       21 0.11084313E-01 0.12500000E+03</pdfrwt>
<pdfrwt beam="2">  1       21 0.83411230E-02 0.12500000E+03</pdfrwt>
<totfact> 0.73869536E+06</totfact>
</mgrwt>
</event>
<event>
 3      1 +1.7592000e+01 1.25000000e+02 7.54677100e-03 1.23506900e-01
       21 -1    0    0  502  501 +0.0000000000e+00 +0.0000000000e+00 +3.5378014364e+02 3.5378014364e+02 0.0000000000e+00 0.0000e+00 1.0000e+00
       21 -1    0    0  501  502 -0.0000000000e+00 -0.0000000000e+00 -1.1041461965e+01 1.1041461965e+01 0.0000000000e+00 0.0000e+00 1.0000e+00
       25  1    1    2    0    0 +0.0000000000e+00 +0.0000000000e+00 +3.4273868167e+02 3.6482160560e+02 1.2500000000e+02 0.0000e+00 0.0000e+00
<mgrwt>
<rscale>  0 0.12500000E+03</rscale>
<asrwt>0</asrwt>
<pdfrwt beam="1">  1       21 0.54427706E-01 0.12500000E+03</pdfrwt>
<pdfrwt beam="2">  1       21 0.16986867E-02 0.12500000E+03</pdfrwt>
<totfact> 0.50462102E+06</totfact>
</mgrwt>
</event>
<event>
 3      1 +1.7592000e+01 1.25000000e+02 7.54677100e-03 1.23506900e-01
       21 -1    0    0  502  501 +0.0000000000e+00 +0.0000000000e+00 +1.0786068910e+01 1.0786068910e+01 0.0000000000e+00 0.0000e+00 1.0000e+00
       21 -1    0    0  501  502 -0.0000000000e+00 -0.0000000000e+00 -3.6215696680e+02 3.6215696680e+02 0.0000000000e+00 0.0000e+00 1.0000e+00
       25  1    1    2    0    0 +0.0000000000e+00 +0.0000000000e+00 -3.5137089789e+02 3.7294303571e+02 1.2500000000e+02 0.0000e+00 0.0000e+00
<mgrwt>
<rscale>  0 0.12500000E+03</rscale>
<asrwt>0</asrwt>
<pdfrwt beam="1">  1       21 0.16593949E-02 0.12500000E+03</pdfrwt>
<pdfrwt beam="2">  1       21 0.55716466E-01 0.12500000E+03</pdfrwt>
<totfact> 0.49887383E+06</totfact>
</mgrwt>
</event>
<event>
 3      1 +1.7592000e+01 1.25000000e+02 7.54677100e-03 1.23506900e-01
       21 -1    0    0  502  501 +0.0000000000e+00 +0.0000000000e+00 +6.1289523068e+01 6.1289523068e+01 0.0000000000e+00 0.0000e+00 -1.0000e+00
       21 -1    0    0  501  502 -0.0000000000e+00 -0.0000000000e+00 -6.3734384026e+01 6.3734384026e+01 0.0000000000e+00 0.0000e+00 -1.0000e+00
       25  1    1    2    0    0 +0.0000000000e+00 +0.0000000000e+00 -2.4448609587e+00 1.2502390709e+02 1.2500000000e+02 0.0000e+00 0.0000e+00
<mgrwt>
<rscale>  0 0.12500000E+03</rscale>
<asrwt>0</asrwt>
<pdfrwt beam="1">  1       21 0.94291574E-02 0.12500000E+03</pdfrwt>
<pdfrwt beam="2">  1       21 0.98052898E-02 0.12500000E+03</pdfrwt>
<totfact> 0.74040352E+06</totfact>
</mgrwt>
</event>
<event>
 3      1 +1.7592000e+01 1.25000000e+02 7.54677100e-03 1.23506900e-01
       21 -1    0    0  502  501 +0.0000000000e+00 +0.0000000000e+00 +1.8584894295e+03 1.8584894295e+03 0.0000000000e+00 0.0000e+00 -1.0000e+00
       21 -1    0    0  501  502 -0.0000000000e+00 -0.0000000000e+00 -2.1018413869e+00 2.1018413869e+00 0.0000000000e+00 0.0000e+00 -1.0000e+00
       25  1    1    2    0    0 +0.0000000000e+00 +0.0000000000e+00 +1.8563875881e+03 1.8605912709e+03 1.2500000000e+02 0.0000e+00 0.0000e+00
<mgrwt>
<rscale>  0 0.12500000E+03</rscale>
<asrwt>0</asrwt>
<pdfrwt beam="1">  1       21 0.28592014E+00 0.12500000E+03</pdfrwt>
<pdfrwt beam="2">  1       21 0.32336170E-03 0.12500000E+03</pdfrwt>
<totfact> 0.93898831E+05</totfact>
</mgrwt>
</event>
<event>
 3      1 +1.7592000e+01 1.25000000e+02 7.54677100e-03 1.23506900e-01
       21 -1    0    0  502  501 +0.0000000000e+00 +0.0000000000e+00 +3.5465606395e+01 3.5465606395e+01 0.0000000000e+00 0.0000e+00 -1.0000e+00
       21 -1    0    0  501  502 -0.0000000000e+00 -0.0000000000e+00 -1.1014192050e+02 1.1014192050e+02 0.0000000000e+00 0.0000e+00 -1.0000e+00
       25  1    1    2    0    0 +0.0000000000e+00 +0.0000000000e+00 -7.4676314104e+01 1.4560752689e+02 1.2500000000e+02 0.0000e+00 0.0000e+00
<mgrwt>
<rscale>  0 0.12500000E+03</rscale>
<asrwt>0</asrwt>
<pdfrwt beam="1">  1       21 0.54562471E-02 0.12500000E+03</pdfrwt>
<pdfrwt beam="2">  1       21 0.16944911E-01 0.12500000E+03</pdfrwt>
<totfact> 0.71315441E+06</totfact>
</mgrwt>
</event>
<event>
 3      1 +1.7592000e+01 1.25000000e+02 7.54677100e-03 1.23506900e-01
       21 -1    0    0  502  501 +0.0000000000e+00 +0.0000000000e+00 +1.2486947642e+02 1.2486947642e+02 0.0000000000e+00 0.0000e+00 -1.0000e+00
       21 -1    0    0  501  502 -0.0000000000e+00 -0.0000000000e+00 -3.1282665003e+01 3.1282665003e+01 0.0000000000e+00 0.0000e+00 -1.0000e+00
       25  1    1    2    0    0 +0.0000000000e+00 +0.0000000000e+00 +9.3586811417e+01 1.5615214142e+02 1.2500000000e+02 0.0000e+00 0.0000e+00
<mgrwt>
<rscale>  0 0.12500000E+03</rscale>
<asrwt>0</asrwt>
<pdfrwt beam="1">  1       21 0.19210688E-01 0.12500000E+03</pdfrwt>
<pdfrwt beam="2">  1       21 0.48127178E-02 0.12500000E+03</pdfrwt>
<totfact> 0.69992745E+06</totfact>
</mgrwt>
</event>
<event>
 3      1 +1.7592000e+01 1.25000000e+02 7.54677100e-03 1.23506900e-01
       21 -1    0    0  502  501 +0.0000000000e+00 +0.0000000000e+00 +8.1513410515e+00 8.1513410515e+00 0.0000000000e+00 0.0000e+00 -1.0000e+00
       21 -1    0    0  501  502 -0.0000000000e+00 -0.0000000000e+00 -4.7921562542e+02 4.7921562542e+02 0.0000000000e+00 0.0000e+00 -1.0000e+00
       25  1    1    2    0    0 +0.0000000000e+00 +0.0000000000e+00 -4.7106428437e+02 4.8736696647e+02 1.2500000000e+02 0.0000e+00 0.0000e+00
<mgrwt>
<rscale>  0 0.12500000E+03</rscale>
<asrwt>0</asrwt>
<pdfrwt beam="1">  1       21 0.12540522E-02 0.12500000E+03</pdfrwt>
<pdfrwt beam="2">  1       21 0.73725498E-01 0.12500000E+03</pdfrwt>
<totfact> 0.42737574E+06</totfact>
</mgrwt>
</event>
<event>
 3      1 +1.7592000e+01 1.25000000e+02 7.54677100e-03 1.23506900e-01
       21 -1    0    0  502  501 +0.0000000000e+00 +0.0000000000e+00 +7.8996960050e+00 7.8996960050e+00 0.0000000000e+00 0.0000e+00 -1.0000e+00
       21 -1    0    0  501  502 -0.0000000000e+00 -0.0000000000e+00 -4.9448105313e+02 4.9448105313e+02 0.0000000000e+00 0.0000e+00 -1.0000e+00
       25  1    1    2    0    0 +0.0000000000e+00 +0.0000000000e+00 -4.8658135713e+02 5.0238074914e+02 1.2500000000e+02 0.0000e+00 0.0000e+00
<mgrwt>
<rscale>  0 0.12500000E+03</rscale>
<asrwt>0</asrwt>
<pdfrwt beam="1">  1       21 0.12153376E-02 0.12500000E+03</pdfrwt>
<pdfrwt beam="2">  1       21 0.76074021E-01 0.12500000E+03</pdfrwt>
<totfact> 0.41915246E+06</totfact>
</mgrwt>
</event>
<event>
 3      1 +1.7592000e+01 1.25000000e+02 7.54677100e-03 1.23506900e-01
       21 -1    0    0  502  501 +0.0000000000e+00 +0.0000000000e+00 +3.5181983721e+00 3.5181983721e+00 0.0000000000e+00 0.0000e+00 1.0000e+00
       21 -1    0    0  501  502 -0.0000000000e+00 -0.0000000000e+00 -1.1102983933e+03 1.1102983933e+03 0.0000000000e+00 0.0000e+00 1.0000e+00
       25  1    1    2    0    0 +0.0000000000e+00 +0.0000000000e+00 -1.1067801950e+03 1.1138165917e+03 1.2500000000e+02 0.0000e+00 0.0000e+00
<mgrwt>
<rscale>  0 0.12500000E+03</rscale>
<asrwt>0</asrwt>
<pdfrwt beam="1">  1       21 0.54126178E-03 0.12500000E+03</pdfrwt>
<pdfrwt beam="2">  1       21 0.17081498E+00 0.12500000E+03</pdfrwt>
<totfact> 0.20946747E+06</totfact>
</mgrwt>
</event>
<event>
 3      1 +1.7592000e+01 1.25000000e+02 7.54677100e-03 1.23506900e-01
       21 -1    0    0  502  501 +0.0000000000e+00 +0.0000000000e+00 +3.7261859030e+03 3.7261859030e+03 0.0000000000e+00 0.0000e+00 -1.0000e+00
       21 -1    0    0  501  502 -0.0000000000e+00 -0.0000000000e+00 -1.0483239703e+00 1.0483239703e+00 0.0000000000e+00 0.0000e+00 -1.0000e+00
       25  1    1    2    0    0 +0.0000000000e+00 +0.0000000000e+00 +3.7251375790e+03 3.7272342269e+03 1.2500000000e+02 0.0000e+00 0.0000e+00
<mgrwt>
<rscale>  0 0.12500000E+03</rscale>
<asrwt>0</asrwt>
<pdfrwt beam="1">  1       21 0.57324877E+00 0.12500000E+03</pdfrwt>
<pdfrwt beam="2">  1       21 0.16128359E-03 0.12500000E+03</pdfrwt>
<totfact> 0.38298246E+04</totfact>
</mgrwt>
</event>
<event>
 3      1 +1.7592000e+01 1.25000000e+02 7.54677100e-03 1.23506900e-01
       21 -1    0    0  502  501 +0.0000000000e+00 +0.0000000000e+00 +2.7014317742e+02 2.7014317742e+02 0.0000000000e+00 0.0000e+00 -1.0000e+00
       21 -1    0    0  501  502 -0.0000000000e+00 -0.0000000000e+00 -1.4459924686e+01 1.4459924686e+01 0.0000000000e+00 0.0000e+00 -1.0000e+00
       25  1    1    2    0    0 +0.0000000000e+00 +0.0000000000e+00 +2.5568325273e+02 2.8460310210e+02 1.2500000000e+02 0.0000e+00 0.0000e+00
<mgrwt>
<rscale>  0 0.12500000E+03</rscale>
<asrwt>0</asrwt>
<pdfrwt beam="1">  1       21 0.41560485E-01 0.12500000E+03</pdfrwt>
<pdfrwt beam="2">  1       21 0.22246040E-02 0.12500000E+03</pdfrwt>
<totfact> 0.56760493E+06</totfact>
</mgrwt>
</event>
<event>
 3      1 +1.7592000e+01 1.25000000e+02 7.54677100e-03 1.23506900e-01
       21 -1    0    0  502  501 +0.0000000000e+00 +0.0000000000e+00 +1.5259347098e+02 1.5259347098e+02 0.0000000000e+00 0.0000e+00 1.0000e+00
       21 -1    0    0  501  502 -0.0000000000e+00 -0.0000000000e+00 -2.5599063806e+01 2.5599063806e+01 0.0000000000e+00 0.0000e+00 1.0000e+00
       25  1    1    2    0    0 +0.0000000000e+00 +0.0000000000e+00 +1.2699440718e+02 1.7819253479e+02 1.2500000000e+02 0.0000e+00 0.0000e+00
<mgrwt>
<rscale>  0 0.12500000E+03</rscale>
<asrwt>0</asrwt>
<pdfrwt beam="1">  1       21 0.23475918E-01 0.12500000E+03</pdfrwt>
<pdfrwt beam="2">  1       21 0.39383176E-02 0.12500000E+03</pdfrwt>
<totfact> 0.67359490E+06</totfact>
</mgrwt>
</event>
<event>
 3      1 +1.7592000e+01 1.25000000e+02 7.54677100e-03 1.23506900e-01
       21 -1    0    0  502  501 +0.0000000000e+00 +0.0000000000e+00 +1.6610053647e+02 1.6610053647e+02 0.0000000000e+00 0.0000e+00 -1.0000e+00
       21 -1    0    0  501  502 -0.0000000000e+00 -0.0000000000e+00 -2.3517383405e+01 2.3517383405e+01 0.0000000000e+00 0.0000e+00 -1.0000e+00
       25  1    1    2    0    0 +0.0000000000e+00 +0.0000000000e+00 +1.4258315307e+02 1.8961791988e+02 1.2500000000e+02 0.0000e+00 0.0000e+00
<mgrwt>
<rscale>  0 0.12500000E+03</rscale>
<asrwt>0</asrwt>
<pdfrwt beam="1">  1       21 0.25553928E-01 0.12500000E+03</pdfrwt>
<pdfrwt beam="2">  1       21 0.36180591E-02 0.12500000E+03</pdfrwt>
<totfact> 0.66064954E+06</totfact>
</mgrwt>
</event>
<event>
 3      1 +1.7592000e+01 1.25000000e+02 7.54677100e-03 1.23506900e-01
       21 -1    0    0  502  501 +0.0000000000e+00 +0.0000000000e+00 +2.4472058628e+01 2.4472058628e+01 0.0000000000e+00 0.0000e+00 -1.0000e+00
       21 -1    0    0  501  502 -0.0000000000e+00 -0.0000000000e+00 -1.5962081733e+02 1.5962081733e+02 0.0000000000e+00 0.0000e+00 -1.0000e+00
       25  1    1    2    0    0 +0.0000000000e+00 +0.0000000000e+00 -1.3514875870e+02 1.8409287596e+02 1.2500000000e+02 0.0000e+00 0.0000e+00
<mgrwt>
<rscale>  0 0.12500000E+03</rscale>
<asrwt>0</asrwt>
<pdfrwt beam="1">  1       21 0.37649321E-02 0.12500000E+03</pdfrwt>
<pdfrwt beam="2">  1       21 0.24557049E-01 0.12500000E+03</pdfrwt>
<totfact> 0.66685089E+06</totfact>
</mgrwt>
</event>
<event>
 3      1 +1.7592000e+01 1.25000000e+02 7.54677100e-03 1.23506900e-01
       21 -1    0    0  502  501 +0.0000000000e+00 +0.0000000000e+00 +8.8609148293e+00 8.8609148293e+00 0.0000000000e+00 0.0000e+00 -1.0000e+00
       21 -1    0    0  501  502 -0.0000000000e+00 -0.0000000000e+00 -4.4084048603e+02 4.4084048603e+02 0.0000000000e+00 0.0000e+00 -1.0000e+00
       25  1    1    2    0    0 +0.0000000000e+00 +0.0000000000e+00 -4.3197957120e+02 4.4970140086e+02 1.2500000000e+02 0.0000e+00 0.0000e+00
<mgrwt>
<rscale>  0 0.12500000E+03</rscale>
<asrwt>0</asrwt>
<pdfrwt beam="1">  1       21 0.13632181E-02 0.12500000E+03</pdfrwt>
<pdfrwt beam="2">  1       21 0.67821593E-01 0.12500000E+03</pdfrwt>
<totfact> 0.44910149E+06</totfact>
</mgrwt>
</event>
<event>
 3      1 +1.7592000e+01 1.25000000e+02 7.54677100e-03 1.23506900e-01
       21 -1    0    0  502  501 +0.0000000000e+00 +0.0000000000e+00 +1.2073744612e+02 1.2073744612e+02 0.0000000000e+00 0.0000e+00 -1.0000e+00
       21 -1    0    0  501  502 -0.0000000000e+00 -0.0000000000e+00 -3.2353260115e+01 3.2353260115e+01 0.0000000000e+00 0.0000e+00 -1.0000e+00
       25  1    1    2    0    0 +0.0000000000e+00 +0.0000000000e+00 +8.8384186006e+01 1.5309070624e+02 1.2500000000e+02 0.0000e+00 0.0000e+00
<mgrwt>
<rscale>  0 0.12500000E+03</rscale>
<asrwt>0</asrwt>
<pdfrwt beam="1">  1       21 0.18574991E-01 0.12500000E+03</pdfrwt>
<pdfrwt beam="2">  1       21 0.49774247E-02 0.12500000E+03</pdfrwt>
<totfact> 0.70373077E+06</totfact>
</mgrwt>
</event>
<event>
 3      1 +1.7592000e+01 1.25000000e+02 7.54677100e-03 1.23506900e-01
       21 -1    0    0  502  501 +0.0000000000e+00 +0.0000000000e+00 +5.9397102398e+01 5.9397102398e+01 0.0000000000e+00 0.0000e+00 1.0000e+00
       21 -1    0    0  501  502 -0.0000000000e+00 -0.0000000000e+00 -6.5764992606e+01 6.5764992606e+01 0.0000000000e+00 0.0000e+00 1.0000e+00
       25  1    1    2    0    0 +0.0000000000e+00 +0.0000000000e+00 -6.3678902082e+00 1.2516209500e+02 1.2500000000e+02 0.0000e+00 0.0000e+00
<mgrwt>
<rscale>  0 0.12500000E+03</rscale>
<asrwt>0</asrwt>
<pdfrwt beam="1">  1       21 0.91380157E-02 0.12500000E+03</pdfrwt>
<pdfrwt beam="2">  1       21 0.10117691E-01 0.12500000E+03</pdfrwt>
<totfact> 0.74021690E+06</totfact>
</mgrwt>
</event>
<event>
 3      1 +1.7592000e+01 1.25000000e+02 7.54677100e-03 1.23506900e-01
       21 -1    0    0  502  501 +0.0000000000e+00 +0.0000000000e+00 +1.6944084191e+02 1.6944084191e+02 0.0000000000e+00 0.0000e+00 1.0000e+00
       21 -1    0    0  501  502 -0.0000000000e+00 -0.0000000000e+00 -2.3053768832e+01 2.3053768832e+01 0.0000000000e+00 0.0000e+00 1.0000e+00
       25  1    1    2    0    0 +0.0000000000e+00 +0.0000000000e+00 +1.4638707308e+02 1.9249461074e+02 1.2500000000e+02 0.0000e+00 0.0000e+00
<mgrwt>
<rscale>  0 0.12500000E+03</rscale>
<asrwt>0</asrwt>
<pdfrwt beam="1">  1       21 0.26067821E-01 0.12500000E+03</pdfrwt>
<pdfrwt beam="2">  1       21 0.35467338E-02 0.12500000E+03</pdfrwt>
<totfact> 0.65746279E+06</totfact>
</mgrwt>
</event>
<event>
 3      1 +1.7592000e+01 1.25000000e+02 7.54677100e-03 1.23506900e-01
       21 -1    0    0  502  501 +0.0000000000e+00 +0.0000000000e+00 +5.7548999966e+01 5.7548999966e+01 0.0000000000e+00 0.0000e+00 1.0000e+00
       21 -1    0    0  501  502 -0.0000000000e+00 -0.0000000000e+00 -6.7876939692e+01 6.7876939692e+01 0.0000000000e+00 0.0000e+00 1.0000e+00
       25  1    1    2    0    0 +0.0000000000e+00 +0.0000000000e+00 -1.0327939726e+01 1.2542593966e+02 1.2500000000e+02 0.0000e+00 0.0000e+00
<mgrwt>
<rscale>  0 0.12500000E+03</rscale>
<asrwt>0</asrwt>
<pdfrwt beam="1">  1       21 0.88536924E-02 0.12500000E+03</pdfrwt>
<pdfrwt beam="2">  1       21 0.10442606E-01 0.12500000E+03</pdfrwt>
<totfact> 0.73985769E+06</totfact>
</mgrwt>
</event>
<event>
 3      1 +1.7592000e+01 1.25000000e+02 7.54677100e-03 1.23506900e-01
       21 -1    0    0  502  501 +0.0000000000e+00 +0.0000000000e+00 +1.5909265056e+03 1.5909265056e+03 0.0000000000e+00 0.0000e+00 -1.0000e+00
       21 -1    0    0  501  502 -0.0000000000e+00 -0.0000000000e+00 -2.4553302659e+00 2.4553302659e+00 0.0000000000e+00 0.0000e+00 -1.0000e+00
       25  1    1    2    0    0 +0.0000000000e+00 +0.0000000000e+00 +1.5884711753e+03 1.5933818359e+03 1.2500000000e+02 0.0000e+00 0.0000e+00
<mgrwt>
<rscale>  0 0.12500000E+03</rscale>
<asrwt>0</asrwt>
<pdfrwt beam="1">  1       21 0.24475710E+00 0.12500000E+03</pdfrwt>
<pdfrwt beam="2">  1       21 0.37774439E-03 0.12500000E+03</pdfrwt>
<totfact> 0.12663871E+06</totfact>
</mgrwt>
</event>
<event>
 3      1 +1.7592000e+01 1.25000000e+02 7.54677100e-03 1.23506900e-01
       21 -1    0    0  502  501 +0.0000000000e+00 +0.0000000000e+00 +2.7037151325e+00 2.7037151325e+00 0.0000000000e+00 0.0000e+00 1.0000e+00
       21 -1    0    0  501  502 -0.0000000000e+00 -0.0000000000e+00 -1.4447712901e+03 1.4447712901e+03 0.0000000000e+00 0.0000e+00 1.0000e+00
       25  1    1    2    0    0 +0.0000000000e+00 +0.0000000000e+00 -1.4420675749e+03 1.4474750052e+03 1.2500000000e+02 0.0000e+00 0.0000e+00
<mgrwt>
<rscale>  0 0.12500000E+03</rscale>
<asrwt>0</asrwt>
<pdfrwt beam="1">  1       21 0.41595554E-03 0.12500000E+03</pdfrwt>
<pdfrwt beam="2">  1       21 0.22227284E+00 0.12500000E+03</pdfrwt>
<totfact> 0.14789812E+06</totfact>
</mgrwt>
</event>
<event>
 3      1 +1.7592000e+01 1.25000000e+02 7.54677100e-03 1.23506900e-01
       21 -1    0    0  502  501 +0.0000000000e+00 +0.0000000000e+00 +1.8612364914e+02 1.8612364914e+02 0.0000000000e+00 0.0000e+00 1.0000e+00
       21 -1    0    0  501  502 -0.0000000000e+00 -0.0000000000e+00 -2.0987392080e+01 2.0987392080e+01 0.0000000000e+00 0.0000e+00 1.0000e+00
       25  1    1    2    0    0 +0.0000000000e+00 +0.0000000000e+00 +1.6513625706e+02 2.0711104122e+02 1.2500000000e+02 0.0000e+00 0.0000e+00
<mgrwt>
<rscale>  0 0.12500000E+03</rscale>
<asrwt>0</asrwt>
<pdfrwt beam="1">  1       21 0.28634407E-01 0.12500000E+03</pdfrwt>
<pdfrwt beam="2">  1       21 0.32288297E-02 0.12500000E+03</pdfrwt>
<totfact> 0.64164775E+06</totfact>
</mgrwt>
</event>
<event>
 3      1 +1.7592000e+01 1.25000000e+02 7.54677100e-03 1.23506900e-01
       21 -1    0    0  502  501 +0.0000000000e+00 +0.0000000000e+00 +4.3628232492e+02 4.3628232492e+02 0.0000000000e+00 0.0000e+00 1.0000e+00
       21 -1    0    0  501  502 -0.0000000000e+00 -0.0000000000e+00 -8.9534912989e+00 8.9534912989e+00 0.0000000000e+00 0.0000e+00 1.0000e+00
       25  1    1    2    0    0 +0.0000000000e+00 +0.0000000000e+00 +4.2732883362e+02 4.4523581621e+02 1.2500000000e+02 0.0000e+00 0.0000e+00
<mgrwt>
<rscale>  0 0.12500000E+03</rscale>
<asrwt>0</asrwt>
<pdfrwt beam="1">  1       21 0.67120341E-01 0.12500000E+03</pdfrwt>
<pdfrwt beam="2">  1       21 0.13774605E-02 0.12500000E+03</pdfrwt>
<totfact> 0.45178732E+06</totfact>
</mgrwt>
</event>
<event>
 3      1 +1.7592000e+01 1.25000000e+02 7.54677100e-03 1.23506900e-01
       21 -1    0    0  502  501 +0.0000000000e+00 +0.0000000000e+00 +4.2751185259e+00 4.2751185259e+00 0.0000000000e+00 0.0000e+00 -1.0000e+00
       21 -1    0    0  501  502 -0.0000000000e+00 -0.0000000000e+00 -9.1371735693e+02 9.1371735693e+02 0.0000000000e+00 0.0000e+00 -1.0000e+00
       25  1    1    2    0    0 +0.0000000000e+00 +0.0000000000e+00 -9.0944223840e+02 9.1799247545e+02 1.2500000000e+02 0.0000e+00 0.0000e+00
<mgrwt>
<rscale>  0 0.12500000E+03</rscale>
<asrwt>0</asrwt>
<pdfrwt beam="1">  1       21 0.65771000E-03 0.12500000E+03</pdfrwt>
<pdfrwt beam="2">  1       21 0.14057202E+00 0.12500000E+03</pdfrwt>
<totfact> 0.25788330E+06</totfact>
</mgrwt>
</event>
<event>
 3      1 +1.7592000e+01 1.25000000e+02 7.54677100e-03 1.23506900e-01
       21 -1    0    0  502  501 +0.0000000000e+00 +0.0000000000e+00 +9.5405322021e+01 9.5405322021e+01 0.0000000000e+00 0.0000e+00 1.0000e+00
       21 -1    0    0  501  502 -0.0000000000e+00 -0.0000000000e+00 -4.0943732669e+01 4.0943732669e+01 0.0000000000e+00 0.0000e+00 1.0000e+00
       25  1    1    2    0    0 +0.0000000000e+00 +0.0000000000e+00 +5.4461589352e+01 1.3634905469e+02 1.2500000000e+02 0.0000e+00 0.0000e+00
<mgrwt>
<rscale>  0 0.12500000E+03</rscale>
<asrwt>0</asrwt>
<pdfrwt beam="1">  1       21 0.14677742E-01 0.12500000E+03</pdfrwt>
<pdfrwt beam="2">  1       21 0.62990358E-02 0.12500000E+03</pdfrwt>
<totfact> 0.72518337E+06</totfact>
</mgrwt>
</event>
<event>
 3      1 +1.7592000e+01 1.25000000e+02 7.54677100e-03 1.23506900e-01
       21 -1    0    0  502  501 +0.0000000000e+00 +0.0000000000e+00 +1.6619969316e+01 1.6619969316e+01 0.0000000000e+00 0.0000e+00 1.0000e+00
       21 -1    0    0  501  502 -0.0000000000e+00 -0.0000000000e+00 -2.3503352658e+02 2.3503352658e+02 0.0000000000e+00 0.0000e+00 1.0000e+00
       25  1    1    2    0    0 +0.0000000000e+00 +0.0000000000e+00 -2.1841355726e+02 2.5165349589e+02 1.2500000000e+02 0.0000e+00 0.0000e+00
<mgrwt>
<rscale>  0 0.12500000E+03</rscale>
<asrwt>0</asrwt>
<pdfrwt beam="1">  1       21 0.25569183E-02 0.12500000E+03</pdfrwt>
<pdfrwt beam="2">  1       21 0.36159005E-01 0.12500000E+03</pdfrwt>
<totfact> 0.59722863E+06</totfact>
</mgrwt>
</event>
<event>
 3      1 +1.7592000e+01 1.25000000e+02 7.54677100e-03 1.23506900e-01
       21 -1    0    0  502  501 +0.0000000000e+00 +0.0000000000e+00 +7.3301395121e+02 7.3301395121e+02 0.0000000000e+00 0.0000e+00 1.0000e+00
       21 -1    0    0  501  502 -0.0000000000e+00 -0.0000000000e+00 -5.3290254484e+00 5.3290254484e+00 0.0000000000e+00 0.0000e+00 1.0000e+00
       25  1    1    2    0    0 +0.0000000000e+00 +0.0000000000e+00 +7.2768492576e+02 7.3834297666e+02 1.2500000000e+02 0.0000e+00 0.0000e+00
<mgrwt>
<rscale>  0 0.12500000E+03</rscale>
<asrwt>0</asrwt>
<pdfrwt beam="1">  1       21 0.11277130E+00 0.12500000E+03</pdfrwt>
<pdfrwt beam="2">  1       21 0.81985065E-03 0.12500000E+03</pdfrwt>
<totfact> 0.31483184E+06</totfact>
</mgrwt>
</event>
<event>
 3      1 +1.7592000e+01 1.25000000e+02 7.54677100e-03 1.23506900e-01
       21 -1    0    0  502  501 +0.0000000000e+00 +0.0000000000e+00 +1.7844045526e+02 1.7844045526e+02 0.0000000000e+00 0.0000e+00 -1.0000e+00
       21 -1    0    0  501  502 -0.0000000000e+00 -0.0000000000e+00 -2.1891056007e+01 2.1891056007e+01 0.0000000000e+00 0.0000e+00 -1.0000e+00
       25  1    1    2    0    0 +0.0000000000e+00 +0.0000000000e+00 +1.5654939925e+02 2.0033151126e+02 1.2500000000e+02 0.0000e+00 0.0000e+00
<mgrwt>
<rscale>  0 0.12500000E+03</rscale>
<asrwt>0</asrwt>
<pdfrwt beam="1">  1       21 0.27452377E-01 0.12500000E+03</pdfrwt>
<pdfrwt beam="2">  1       21 0.33678549E-02 0.12500000E+03</pdfrwt>
<totfact> 0.64891349E+06</totfact>
</mgrwt>
</event>
<event>
 3      1 +1.7592000e+01 1.25000000e+02 7.54677100e-03 1.23506900e-01
       21 -1    0    0  502  501 +0.0000000000e+00 +0.0000000000e+00 +8.1965524888e+02 8.1965524888e+02 0.0000000000e+00 0.0000e+00 1.0000e+00
       21 -1    0    0  501  502 -0.0000000000e+00 -0.0000000000e+00 -4.7657231566e+00 4.7657231566e+00 0.0000000000e+00 0.0000e+00 1.0000e+00
       25  1    1    2    0    0 +0.0000000000e+00 +0.0000000000e+00 +8.1488952572e+02 8.2442097203e+02 1.2500000000e+02 0.0000e+00 0.0000e+00
<mgrwt>
<rscale>  0 0.12500000E+03</rscale>
<asrwt>0</asrwt>
<pdfrwt beam="1">  1       21 0.12610070E+00 0.12500000E+03</pdfrwt>
<pdfrwt beam="2">  1       21 0.73318883E-03 0.12500000E+03</pdfrwt>
<totfact> 0.28569543E+06</totfact>
</mgrwt>
</event>
<event>
 3      1 +1.7592000e+01 1.25000000e+02 7.54677100e-03 1.23506900e-01
       21 -1    0    0  502  501 +0.0000000000e+00 +0.0000000000e+00 +1.0457881466e+02 1.0457881466e+02 0.0000000000e+00 0.0000e+00 -1.0000e+00
       21 -1    0    0  501  502 -0.0000000000e+00 -0.0000000000e+00 -3.7352211464e+01 3.7352211464e+01 0.0000000000e+00 0.0000e+00 -1.0000e+00
       25  1    1    2    0    0 +0.0000000000e+00 +0.0000000000e+00 +6.7226603200e+01 1.4193102613e+02 1.2500000000e+02 0.0000e+00 0.0000e+00
<mgrwt>
<rscale>  0 0.12500000E+03</rscale>
<asrwt>0</asrwt>
<pdfrwt beam="1">  1       21 0.16089048E-01 0.12500000E+03</pdfrwt>
<pdfrwt beam="2">  1       21 0.57464941E-02 0.12500000E+03</pdfrwt>
<totfact> 0.71788209E+06</totfact>
</mgrwt>
</event>
<event>
 3      1 +1.7592000e+01 1.25000000e+02 7.54677100e-03 1.23506900e-01
       21 -1    0    0  502  501 +0.0000000000e+00 +0.0000000000e+00 +8.6397410370e+01 8.6397410370e+01 0.0000000000e+00 0.0000e+00 -1.0000e+00
       21 -1    0    0  501  502 -0.0000000000e+00 -0.0000000000e+00 -4.5212581989e+01 4.5212581989e+01 0.0000000000e+00 0.0000e+00 -1.0000e+00
       25  1    1    2    0    0 +0.0000000000e+00 +0.0000000000e+00 +4.1184828381e+01 1.3160999236e+02 1.2500000000e+02 0.0000e+00 0.0000e+00
<mgrwt>
<rscale>  0 0.12500000E+03</rscale>
<asrwt>0</asrwt>
<pdfrwt beam="1">  1       21 0.13291909E-01 0.12500000E+03</pdfrwt>
<pdfrwt beam="2">  1       21 0.69557819E-02 0.12500000E+03</pdfrwt>
<totfact> 0.73148588E+06</totfact>
</mgrwt>
</event>
<event>
 3      1 +1.7592000e+01 1.25000000e+02 7.54677100e-03 1.23506900e-01
       21 -1    0    0  502  501 +0.0000000000e+00 +0.0000000000e+00 +2.7142996358e+01 2.7142996358e+01 0.0000000000e+00 0.0000e+00 1.0000e+00
       21 -1    0    0  501  502 -0.0000000000e+00 -0.0000000000e+00 -1.4391373556e+02 1.4391373556e+02 0.0000000000e+00 0.0000e+00 1.0000e+00
       25  1    1    2    0    0 +0.0000000000e+00 +0.0000000000e+00 -1.1677073920e+02 1.7105673191e+02 1.2500000000e+02 0.0000e+00 0.0000e+00
<mgrwt>
<rscale>  0 0.12500000E+03</rscale>
<asrwt>0</asrwt>
<pdfrwt beam="1">  1       21 0.41758457E-02 0.12500000E+03</pdfrwt>
<pdfrwt beam="2">  1       21 0.22140574E-01 0.12500000E+03</pdfrwt>
<totfact> 0.68192587E+06</totfact>
</mgrwt>
</event>
<event>
 3      1 +1.7592000e+01 1.25000000e+02 7.54677100e-03 1.23506900e-01
       21 -1    0    0  502  501 +0.0000000000e+00 +0.0000000000e+00 +4.1599286667e+02 4.1599286667e+02 0.0000000000e+00 0.0000e+00 -1.0000e+00
       21 -1    0    0  501  502 -0.0000000000e+00 -0.0000000000e+00 -9.3901850560e+00 9.3901850560e+00 0.0000000000e+00 0.0000e+00 -1.0000e+00
       25  1    1    2    0    0 +0.0000000000e+00 +0.0000000000e+00 +4.0660268161e+02 4.2538305173e+02 1.2500000000e+02 0.0000e+00 0.0000e+00
<mgrwt>
<rscale>  0 0.12500000E+03</rscale>
<asrwt>0</asrwt>
<pdfrwt beam="1">  1       21 0.63998888E-01 0.12500000E+03</pdfrwt>
<pdfrwt beam="2">  1       21 0.14446442E-02 0.12500000E+03</pdfrwt>
<totfact> 0.46402070E+06</totfact>
</mgrwt>
</event>
<event>
 3      1 +1.7592000e+01 1.25000000e+02 7.54677100e-03 1.23506900e-01
       21 -1    0    0  502  501 +0.0000000000e+00 +0.0000000000e+00 +9.6224126993e+00 9.6224126993e+00 0.0000000000e+00 0.0000e+00 1.0000e+00
       21 -1    0    0  501  502 -0.0000000000e+00 -0.0000000000e+00 -4.0595328033e+02 4.0595328033e+02 0.0000000000e+00 0.0000e+00 1.0000e+00
       25  1    1    2    0    0 +0.0000000000e+00 +0.0000000000e+00 -3.9633086763e+02 4.1557569303e+02 1.2500000000e+02 0.0000e+00 0.0000e+00
<mgrwt>
<rscale>  0 0.12500000E+03</rscale>
<asrwt>0</asrwt>
<pdfrwt beam="1">  1       21 0.14803713E-02 0.12500000E+03</pdfrwt>
<pdfrwt beam="2">  1       21 0.62454345E-01 0.12500000E+03</pdfrwt>
<totfact> 0.47025108E+06</totfact>
</mgrwt>
</event>
<event>
 3      1 +1.7592000e+01 1.25000000e+02 7.54677100e-03 1.23506900e-01
       21 -1    0    0  502  501 +0.0000000000e+00 +0.0000000000e+00 +5.9862972071e+01 5.9862972071e+01 0.0000000000e+00 0.0000e+00 -1.0000e+00
       21 -1    0    0  501  502 -0.0000000000e+00 -0.0000000000e+00 -6.5253191829e+01 6.5253191829e+01 0.0000000000e+00 0.0000e+00 -1.0000e+00
       25  1    1    2    0    0 +0.0000000000e+00 +0.0000000000e+00 -5.3902197574e+00 1.2511616390e+02 1.2500000000e+02 0.0000e+00 0.0000e+00
<mgrwt>
<rscale>  0 0.12500000E+03</rscale>
<asrwt>0</asrwt>
<pdfrwt beam="1">  1       21 0.92096880E-02 0.12500000E+03</pdfrwt>
<pdfrwt beam="2">  1       21 0.10038953E-01 0.12500000E+03</pdfrwt>
<totfact> 0.74027892E+06</totfact>
</mgrwt>
</event>
<event>
 3      1 +1.7592000e+01 1.25000000e+02 7.54677100e-03 1.23506900e-01
       21 -1    0    0  502  501 +0.0000000000e+00 +0.0000000000e+00 +8.7509134804e+01 8.7509134804e+01 0.0000000000e+00 0.0000e+00 1.0000e+00
       21 -1    0    0  501  502 -0.0000000000e+00 -0.0000000000e+00 -4.4638197015e+01 4.4638197015e+01 0.0000000000e+00 0.0000e+00 1.0000e+00
       25  1    1    2    0    0 +0.0000000000e+00 +0.0000000000e+00 +4.2870937789e+01 1.3214733182e+02 1.2500000000e+02 0.0000e+00 0.0000e+00
<mgrwt>
<rscale>  0 0.12500000E+03</rscale>
<asrwt>0</asrwt>
<pdfrwt beam="1">  1       21 0.13462944E-01 0.12500000E+03</pdfrwt>
<pdfrwt beam="2">  1       21 0.68674150E-02 0.12500000E+03</pdfrwt>
<totfact> 0.73076474E+06</totfact>
</mgrwt>
</event>
<event>
 3      1 +1.7592000e+01 1.25000000e+02 7.54677100e-03 1.23506900e-01
       21 -1    0    0  502  501 +0.0000000000e+00 +0.0000000000e+00 +8.7592351790e+00 8.7592351790e+00 0.0000000000e+00 0.0000e+00 -1.0000e+00
       21 -1    0    0  501  502 -0.0000000000e+00 -0.0000000000e+00 -4.4595788561e+02 4.4595788561e+02 0.0000000000e+00 0.0000e+00 -1.0000e+00
       25  1    1    2    0    0 +0.0000000000e+00 +0.0000000000e+00 -4.3719865043e+02 4.5471712079e+02 1.2500000000e+02 0.0000e+00 0.0000e+00
<mgrwt>
<rscale>  0 0.12500000E+03</rscale>
<asrwt>0</asrwt>
<pdfrwt beam="1">  1       21 0.13475745E-02 0.12500000E+03</pdfrwt>
<pdfrwt beam="2">  1       21 0.68608912E-01 0.12500000E+03</pdfrwt>
<totfact> 0.44611343E+06</totfact>
</mgrwt>
</event>
<event>
 3      1 +1.7592000e+01 1.25000000e+02 7.54677100e-03 1.23506900e-01
       21 -1    0    0  502  501 +0.0000000000e+00 +0.0000000000e+00 +2.8361018965e+01 2.8361018965e+01 0.0000000000e+00 0.0000e+00 -1.0000e+00
       21 -1    0    0  501  502 -0.0000000000e+00 -0.0000000000e+00 -1.3773306258e+02 1.3773306258e+02 0.0000000000e+00 0.0000e+00 -1.0000e+00
       25  1    1    2    0    0 +0.0000000000e+00 +0.0000000000e+00 -1.0937204362e+02 1.6609408155e+02 1.2500000000e+02 0.0000e+00 0.0000e+00
<mgrwt>
<rscale>  0 0.12500000E+03</rscale>
<asrwt>0</asrwt>
<pdfrwt beam="1">  1       21 0.43632336E-02 0.12500000E+03</pdfrwt>
<pdfrwt beam="2">  1       21 0.21189702E-01 0.12500000E+03</pdfrwt>
<totfact> 0.68782425E+06</totfact>
</mgrwt>
</event>
<event>
 3      1 +1.7592000e+01 1.25000000e+02 7.54677100e-03 1.23506900e-01
       21 -1    0    0  502  501 +0.0000000000e+00 +0.0000000000e+00 +5.9744468140e+01 5.9744468140e+01 0.0000000000e+00 0.0000e+00 -1.0000e+00
       21 -1    0    0  501  502 -0.0000000000e+00 -0.0000000000e+00 -6.5382622385e+01 6.5382622385e+01 0.0000000000e+00 0.0000e+00 -1.0000e+00
       25  1    1    2    0    0 +0.0000000000e+00 +0.0000000000e+00 -5.6381542455e+00 1.2512709053e+02 1.2500000000e+02 0.0000e+00 0.0000e+00
<mgrwt>
<rscale>  0 0.12500000E+03</rscale>
<asrwt>0</asrwt>
<pdfrwt beam="1">  1       21 0.91914567E-02 0.12500000E+03</pdfrwt>
<pdfrwt beam="2">  1       21 0.10058865E-01 0.12500000E+03</pdfrwt>
<totfact> 0.74026417E+06</totfact>
</mgrwt>
</event>
<event>
 3      1 +1.7592000e+01 1.25000000e+02 7.54677100e-03 1.23506900e-01
       21 -1    0    0  502  501 +0.0000000000e+00 +0.0000000000e+00 +2.2671400230e+00 2.2671400230e+00 0.0000000000e+00 0.0000e+00 1.0000e+00
       21 -1    0    0  501  502 -0.0000000000e+00 -0.0000000000e+00 -1.7229857708e+03 1.7229857708e+03 0.0000000000e+00 0.0000e+00 1.0000e+00
       25  1    1    2    0    0 +0.0000000000e+00 +0.0000000000e+00 -1.7207186307e+03 1.7252529108e+03 1.2500000000e+02 0.0000e+00 0.0000e+00
<mgrwt>
<rscale>  0 0.12500000E+03</rscale>
<asrwt>0</asrwt>
<pdfrwt beam="1">  1       21 0.34879087E-03 0.12500000E+03</pdfrwt>
<pdfrwt beam="2">  1       21 0.26507466E+00 0.12500000E+03</pdfrwt>
<totfact> 0.10957612E+06</totfact>
</mgrwt>
</event>
<event>
 3      1 +1.7592000e+01 1.25000000e+02 7.54677100e-03 1.23506900e-01
       21 -1    0    0  502  501 +0.0000000000e+00 +0.0000000000e+00 +6.8741536773e+00 6.8741536773e+00 0.0000000000e+00 0.0000e+00 1.0000e+00
       21 -1    0    0  501  502 -0.0000000000e+00 -0.0000000000e+00 -5.6825177082e+02 5.6825177082e+02 0.0000000000e+00 0.0000e+00 1.0000e+00
       25  1    1    2    0    0 +0.0000000000e+00 +0.0000000000e+00 -5.6137761714e+02 5.7512592449e+02 1.2500000000e+02 0.0000e+00 0.0000e+00
<mgrwt>
<rscale>  0 0.12500000E+03</rscale>
<asrwt>0</asrwt>
<pdfrwt beam="1">  1       21 0.10575619E-02 0.12500000E+03</pdfrwt>
<pdfrwt beam="2">  1       21 0.87423363E-01 0.12500000E+03</pdfrwt>
<totfact> 0.38242240E+06</totfact>
</mgrwt>
</event>
<event>
 3      1 +1.7592000e+01 1.25000000e+02 7.54677100e-03 1.23506900e-01
       21 -1    0    0  502  501 +0.0000000000e+00 +0.0000000000e+00 +4.3167509988e+00 4.3167509988e+00 0.0000000000e+00 0.0000e+00 1.0000e+00
       21 -1    0    0  501  502 -0.0000000000e+00 -0.0000000000e+00 -9.0490510134e+02 9.0490510134e+02 0.0000000000e+00 0.0000e+00 1.0000e+00
       25  1    1    2    0    0 +0.0000000000e+00 +0.0000000000e+00 -9.0058835034e+02 9.0922185234e+02 1.2500000000e+02 0.0000e+00 0.0000e+00
<mgrwt>
<rscale>  0 0.12500000E+03</rscale>
<asrwt>0</asrwt>
<pdfrwt beam="1">  1       21 0.66411553E-03 0.12500000E+03</pdfrwt>
<pdfrwt beam="2">  1       21 0.13921617E+00 0.12500000E+03</pdfrwt>
<totfact> 0.26035689E+06</totfact>
</mgrwt>
</event>
<event>
 3      1 +1.7592000e+01 1.25000000e+02 7.54677100e-03 1.23506900e-01
       21 -1    0    0  502  501 +0.0000000000e+00 +0.0000000000e+00 +6.7575188827e+01 6.7575188827e+01 0.0000000000e+00 0.0000e+00 1.0000e+00
       21 -1    0    0  501  502 -0.0000000000e+00 -0.0000000000e+00 -5.7805979795e+01 5.7805979795e+01 0.0000000000e+00 0.0000e+00 1.0000e+00
       25  1    1    2    0    0 +0.0000000000e+00 +0.0000000000e+00 +9.7692090315e+00 1.2538116862e+02 1.2500000000e+02 0.0000e+00 0.0000e+00
<mgrwt>
<rscale>  0 0.12500000E+03</rscale>
<asrwt>0</asrwt>
<pdfrwt beam="1">  1       21 0.10396183E-01 0.12500000E+03</pdfrwt>
<pdfrwt beam="2">  1       21 0.88932277E-02 0.12500000E+03</pdfrwt>
<totfact> 0.73992059E+06</totfact>
</mgrwt>
</event>
<event>
 3      1 +1.7592000e+01 1.25000000e+02 7.54677100e-03 1.23506900e-01
       21 -1    0    0  502  501 +0.0000000000e+00 +0.0000000000e+00 +9.4261380089e+02 9.4261380089e+02 0.0000000000e+00 0.0000e+00 1.0000e+00
       21 -1    0    0  501  502 -0.0000000000e+00 -0.0000000000e+00 -4.1440619651e+00 4.1440619651e+00 0.0000000000e+00 0.0000e+00 1.0000e+00
       25  1    1    2    0    0 +0.0000000000e+00 +0.0000000000e+00 +9.3846973892e+02 9.4675786285e+02 1.2500000000e+02 0.0000e+00 0.0000e+00
<mgrwt>
<rscale>  0 0.12500000E+03</rscale>
<asrwt>0</asrwt>
<pdfrwt beam="1">  1       21 0.14501734E+00 0.12500000E+03</pdfrwt>
<pdfrwt beam="2">  1       21 0.63754875E-03 0.12500000E+03</pdfrwt>
<totfact> 0.24998440E+06</totfact>
</mgrwt>
</event>
<event>
 3      1 +1.7592000e+01 1.25000000e+02 7.54677100e-03 1.23506900e-01
       21 -1    0    0  502  501 +0.0000000000e+00 +0.0000000000e+00 +2.8374617255e+01 2.8374617255e+01 0.0000000000e+00 0.0000e+00 1.0000e+00
       21 -1    0    0  501  502 -0.0000000000e+00 -0.0000000000e+00 -1.3766705520e+02 1.3766705520e+02 0.0000000000e+00 0.0000e+00 1.0000e+00
       25  1    1    2    0    0 +0.0000000000e+00 +0.0000000000e+00 -1.0929243795e+02 1.6604167246e+02 1.2500000000e+02 0.0000e+00 0.0000e+00
<mgrwt>
<rscale>  0 0.12500000E+03</rscale>
<asrwt>0</asrwt>
<pdfrwt beam="1">  1       21 0.43653258E-02 0.12500000E+03</pdfrwt>
<pdfrwt beam="2">  1       21 0.21179547E-01 0.12500000E+03</pdfrwt>
<totfact> 0.68788701E+06</totfact>
</mgrwt>
</event>
<event>
 3      1 +1.7592000e+01 1.25000000e+02 7.54677100e-03 1.23506900e-01
       21 -1    0    0  502  501 +0.0000000000e+00 +0.0000000000e+00 +3.7686098214e+01 3.7686098214e+01 0.0000000000e+00 0.0000e+00 -1.0000e+00
       21 -1    0    0  501  502 -0.0000000000e+00 -0.0000000000e+00 -1.0365227989e+02 1.0365227989e+02 0.0000000000e+00 0.0000e+00 -1.0000e+00
       25  1    1    2    0    0 +0.0000000000e+00 +0.0000000000e+00 -6.5966181674e+01 1.4133837810e+02 1.2500000000e+02 0.0000e+00 0.0000e+00
<mgrwt>
<rscale>  0 0.12500000E+03</rscale>
<asrwt>0</asrwt>
<pdfrwt beam="1">  1       21 0.57978614E-02 0.12500000E+03</pdfrwt>
<pdfrwt beam="2">  1       21 0.15946504E-01 0.12500000E+03</pdfrwt>
<totfact> 0.71865064E+06</totfact>
</mgrwt>
</event>
<event>
 3      1 +1.7592000e+01 1.25000000e+02 7.54677100e-03 1.23506900e-01
       21 -1    0    0  502  501 +0.0000000000e+00 +0.0000000000e+00 +1.4847202646e+01 1.4847202646e+01 0.0000000000e+00 0.0000e+00 -1.0000e+00
       21 -1    0    0  501  502 -0.0000000000e+00 -0.0000000000e+00 -2.6309669863e+02 2.6309669863e+02 0.0000000000e+00 0.0000e+00 -1.0000e+00
       25  1    1    2    0    0 +0.0000000000e+00 +0.0000000000e+00 -2.4824949598e+02 2.7794390127e+02 1.2500000000e+02 0.0000e+00 0.0000e+00
<mgrwt>
<rscale>  0 0.12500000E+03</rscale>
<asrwt>0</asrwt>
<pdfrwt beam="1">  1       21 0.22841851E-02 0.12500000E+03</pdfrwt>
<pdfrwt beam="2">  1       21 0.40476415E-01 0.12500000E+03</pdfrwt>
<totfact> 0.57340420E+06</totfact>
</mgrwt>
</event>
<event>
 3      1 +1.7592000e+01 1.25000000e+02 7.54677100e-03 1.23506900e-01
       21 -1    0    0  502  501 +0.0000000000e+00 +0.0000000000e+00 +3.5027655420e+01 3.5027655420e+01 0.0000000000e+00 0.0000e+00 -1.0000e+00
       21 -1    0    0  501  502 -0.0000000000e+00 -0.0000000000e+00 -1.1151902556e+02 1.1151902556e+02 0.0000000000e+00 0.0000e+00 -1.0000e+00
       25  1    1    2    0    0 +0.0000000000e+00 +0.0000000000e+00 -7.6491370137e+01 1.4654668098e+02 1.2500000000e+02 0.0000e+00 0.0000e+00
<mgrwt>
<rscale>  0 0.12500000E+03</rscale>
<asrwt>0</asrwt>
<pdfrwt beam="1">  1       21 0.53888701E-02 0.12500000E+03</pdfrwt>
<pdfrwt beam="2">  1       21 0.17156773E-01 0.12500000E+03</pdfrwt>
<totfact> 0.71195746E+06</totfact>
</mgrwt>
</event>
<event>
 3      1 +1.7592000e+01 1.25000000e+02 7.54677100e-03 1.23506900e-01
       21 -1    0    0  502  501 +0.0000000000e+00 +0.0000000000e+00 +1.2255289023e+02 1.2255289023e+02 0.0000000000e+00 0.0000e+00 -1.0000e+00
       21 -1    0    0  501  502 -0.0000000000e+00 -0.0000000000e+00 -3.1873993283e+01 3.1873993283e+01 0.0000000000e+00 0.0000e+00 -1.0000e+00
       25  1    1    2    0    0 +0.0000000000e+00 +0.0000000000e+00 +9.0678896946e+01 1.5442688351e+02 1.2500000000e+02 0.0000e+00 0.0000e+00
<mgrwt>
<rscale>  0 0.12500000E+03</rscale>
<asrwt>0</asrwt>
<pdfrwt beam="1">  1       21 0.18854291E-01 0.12500000E+03</pdfrwt>
<pdfrwt beam="2">  1       21 0.49036913E-02 0.12500000E+03</pdfrwt>
<totfact> 0.70206960E+06</totfact>
</mgrwt>
</event>
<event>
 3      1 +1.7592000e+01 1.25000000e+02 7.54677100e-03 1.23506900e-01
       21 -1    0    0  502  501 +0.0000000000e+00 +0.0000000000e+00 +1.3797726130e+01 1.3797726130e+01 0.0000000000e+00 0.0000e+00 -1.0000e+00
       21 -1    0    0  501  502 -0.0000000000e+00 -0.0000000000e+00 -2.8310824284e+02 2.8310824284e+02 0.0000000000e+00 0.0000e+00 -1.0000e+00
       25  1    1    2    0    0 +0.0000000000e+00 +0.0000000000e+00 -2.6931051671e+02 2.9690596897e+02 1.2500000000e+02 0.0000e+00 0.0000e+00
<mgrwt>
<rscale>  0 0.12500000E+03</rscale>
<asrwt>0</asrwt>
<pdfrwt beam="1">  1       21 0.21227273E-02 0.12500000E+03</pdfrwt>
<pdfrwt beam="2">  1       21 0.43555110E-01 0.12500000E+03</pdfrwt>
<totfact> 0.55714285E+06</totfact>
</mgrwt>
</event>
<event>
 3      1 +1.7592000e+01 1.25000000e+02 7.54677100e-03 1.23506900e-01
       21 -1    0    0  502  501 +0.0000000000e+00 +0.0000000000e+00 +4.5275506401e+00 4.5275506401e+00 0.0000000000e+00 0.0000e+00 -1.0000e+00
       21 -1    0    0  501  502 -0.0000000000e+00 -0.0000000000e+00 -8.6277334270e+02 8.6277334270e+02 0.0000000000e+00 0.0000e+00 -1.0000e+00
       25  1    1    2    0    0 +0.0000000000e+00 +0.0000000000e+00 -8.5824579206e+02 8.6730089334e+02 1.2500000000e+02 0.0000e+00 0.0000e+00
<mgrwt>
<rscale>  0 0.12500000E+03</rscale>
<asrwt>0</asrwt>
<pdfrwt beam="1">  1       21 0.69654685E-03 0.12500000E+03</pdfrwt>
<pdfrwt beam="2">  1       21 0.13273425E+00 0.12500000E+03</pdfrwt>
<totfact> 0.27250411E+06</totfact>
</mgrwt>
</event>
<event>
 3      1 +1.7592000e+01 1.25000000e+02 7.54677100e-03 1.23506900e-01
       21 -1    0    0  502  501 +0.0000000000e+00 +0.0000000000e+00 +2.7137979296e+01 2.7137979296e+01 0.0000000000e+00 0.0000e+00 1.0000e+00
       21 -1    0    0  501  502 -0.0000000000e+00 -0.0000000000e+00 -1.4394034123e+02 1.4394034123e+02 0.0000000000e+00 0.0000e+00 1.0000e+00
       25  1    1    2    0    0 +0.0000000000e+00 +0.0000000000e+00 -1.1680236193e+02 1.7107832052e+02 1.2500000000e+02 0.0000e+00 0.0000e+00
<mgrwt>
<rscale>  0 0.12500000E+03</rscale>
<asrwt>0</asrwt>
<pdfrwt beam="1">  1       21 0.41750737E-02 0.12500000E+03</pdfrwt>
<pdfrwt beam="2">  1       21 0.22144668E-01 0.12500000E+03</pdfrwt>
<totfact> 0.68190036E+06</totfact>
</mgrwt>
</event>
<event>
 3      1 +1.7592000e+01 1.25000000e+02 7.54677100e-03 1.23506900e-01
       21 -1    0    0  502  501 +0.0000000000e+00 +0.0000000000e+00 +1.1822803259e+02 1.1822803259e+02 0.0000000000e+00 0.0000e+00 -1.0000e+00
       21 -1    0    0  501  502 -0.0000000000e+00 -0.0000000000e+00 -3.3039964502e+01 3.3039964502e+01 0.0000000000e+00 0.0000e+00 -1.0000e+00
       25  1    1    2    0    0 +0.0000000000e+00 +0.0000000000e+00 +8.5188068089e+01 1.5126799709e+02 1.2500000000e+02 0.0000e+00 0.0000e+00
<mgrwt>
<rscale>  0 0.12500000E+03</rscale>
<asrwt>0</asrwt>
<pdfrwt beam="1">  1       21 0.18188928E-01 0.12500000E+03</pdfrwt>
<pdfrwt beam="2">  1       21 0.50830715E-02 0.12500000E+03</pdfrwt>
<totfact> 0.70600279E+06</totfact>
</mgrwt>
</event>
<event>
 3      1 +1.7592000e+01 1.25000000e+02 7.54677100e-03 1.23506900e-01
       21 -1    0    0  502  501 +0.0000000000e+00 +0.0000000000e+00 +3.1722348827e+02 3.1722348827e+02 0.0000000000e+00 0.0000e+00 -1.0000e+00
       21 -1    0    0  501  502 -0.0000000000e+00 -0.0000000000e+00 -1.2313873797e+01 1.2313873797e+01 0.0000000000e+00 0.0000e+00 -1.0000e+00
       25  1    1    2    0    0 +0.0000000000e+00 +0.0000000000e+00 +3.0490961447e+02 3.2953736207e+02 1.2500000000e+02 0.0000e+00 0.0000e+00
<mgrwt>
<rscale>  0 0.12500000E+03</rscale>
<asrwt>0</asrwt>
<pdfrwt beam="1">  1       21 0.48803608E-01 0.12500000E+03</pdfrwt>
<pdfrwt beam="2">  1       21 0.18944424E-02 0.12500000E+03</pdfrwt>
<totfact> 0.53086108E+06</totfact>
</mgrwt>
</event>
<event>
 3      1 +1.7592000e+01 1.25000000e+02 7.54677100e-03 1.23506900e-01
       21 -1    0    0  502  501 +0.0000000000e+00 +0.0000000000e+00 +1.3498850177e+01 1.3498850177e+01 0.0000000000e+00 0.0000e+00 -1.0000e+00
       21 -1    0    0  501  502 -0.0000000000e+00 -0.0000000000e+00 -2.8937649865e+02 2.8937649865e+02 0.0000000000e+00 0.0000e+00 -1.0000e+00
       25  1    1    2    0    0 +0.0000000000e+00 +0.0000000000e+00 -2.7587764848e+02 3.0287534883e+02 1.2500000000e+02 0.0000e+00 0.0000e+00
<mgrwt>
<rscale>  0 0.12500000E+03</rscale>
<asrwt>0</asrwt>
<pdfrwt beam="1">  1       21 0.20767464E-02 0.12500000E+03</pdfrwt>
<pdfrwt beam="2">  1       21 0.44519456E-01 0.12500000E+03</pdfrwt>
<totfact> 0.55218067E+06</totfact>
</mgrwt>
</event>
<event>
 3      1 +1.7592000e+01 1.25000000e+02 7.54677100e-03 1.23506900e-01
       21 -1    0    0  502  501 +0.0000000000e+00 +0.0000000000e+00 +4.2790032131e+02 4.2790032131e+02 0.0000000000e+00 0.0000e+00 1.0000e+00
       21 -1    0    0  501  502 -0.0000000000e+00 -0.0000000000e+00 -9.1288783986e+00 9.1288783986e+00 0.0000000000e+00 0.0000e+00 1.0000e+00
       25  1    1    2    0    0 +0.0000000000e+00 +0.0000000000e+00 +4.1877144291e+02 4.3702919971e+02 1.2500000000e+02 0.0000e+00 0.0000e+00
<mgrwt>
<rscale>  0 0.12500000E+03</rscale>
<asrwt>0</asrwt>
<pdfrwt beam="1">  1       21 0.65830803E-01 0.12500000E+03</pdfrwt>
<pdfrwt beam="2">  1       21 0.14044432E-02 0.12500000E+03</pdfrwt>
<totfact> 0.45678463E+06</totfact>
</mgrwt>
</event>
<event>
 3      1 +1.7592000e+01 1.25000000e+02 7.54677100e-03 1.23506900e-01
       21 -1    0    0  502  501 +0.0000000000e+00 +0.0000000000e+00 +1.8766267492e+02 1.8766267492e+02 0.0000000000e+00 0.0000e+00 -1.0000e+00
       21 -1    0    0  501  502 -0.0000000000e+00 -0.0000000000e+00 -2.0815274011e+01 2.0815274011e+01 0.0000000000e+00 0.0000e+00 -1.0000e+00
       25  1    1    2    0    0 +0.0000000000e+00 +0.0000000000e+00 +1.6684740091e+02 2.0847794893e+02 1.2500000000e+02 0.0000e+00 0.0000e+00
<mgrwt>
<rscale>  0 0.12500000E+03</rscale>
<asrwt>0</asrwt>
<pdfrwt beam="1">  1       21 0.28871180E-01 0.12500000E+03</pdfrwt>
<pdfrwt beam="2">  1       21 0.32023500E-02 0.12500000E+03</pdfrwt>
<totfact> 0.64020030E+06</totfact>
</mgrwt>
</event>
<event>
 3      1 +1.7592000e+01 1.25000000e+02 7.54677100e-03 1.23506900e-01
       21 -1    0    0  502  501 +0.0000000000e+00 +0.0000000000e+00 +1.8535698000e+01 1.8535698000e+01 0.0000000000e+00 0.0000e+00 -1.0000e+00
       21 -1    0    0  501  502 -0.0000000000e+00 -0.0000000000e+00 -2.1074199633e+02 2.1074199633e+02 0.0000000000e+00 0.0000e+00 -1.0000e+00
       25  1    1    2    0    0 +0.0000000000e+00 +0.0000000000e+00 -1.9220629833e+02 2.2927769433e+02 1.2500000000e+02 0.0000e+00 0.0000e+00
<mgrwt>
<rscale>  0 0.12500000E+03</rscale>
<asrwt>0</asrwt>
<pdfrwt beam="1">  1       21 0.28516460E-02 0.12500000E+03</pdfrwt>
<pdfrwt beam="2">  1       21 0.32421843E-01 0.12500000E+03</pdfrwt>
<totfact> 0.61885936E+06</totfact>
</mgrwt>
</event>
<event>
 3      1 +1.7592000e+01 1.25000000e+02 7.54677100e-03 1.23506900e-01
       21 -1    0    0  502  501 +0.0000000000e+00 +0.0000000000e+00 +1.2192096785e+01 1.2192096785e+01 0.0000000000e+00 0.0000e+00 -1.0000e+00
       21 -1    0    0  501  502 -0.0000000000e+00 -0.0000000000e+00 -3.2039197759e+02 3.2039197759e+02 0.0000000000e+00 0.0000e+00 -1.0000e+00
       25  1    1    2    0    0 +0.0000000000e+00 +0.0000000000e+00 -3.0819988080e+02 3.3258407437e+02 1.2500000000e+02 0.0000e+00 0.0000e+00
<mgrwt>
<rscale>  0 0.12500000E+03</rscale>
<asrwt>0</asrwt>
<pdfrwt beam="1">  1       21 0.18757069E-02 0.12500000E+03</pdfrwt>
<pdfrwt beam="2">  1       21 0.49291080E-01 0.12500000E+03</pdfrwt>
<totfact> 0.52850943E+06</totfact>
</mgrwt>
</event>
<event>
 3      1 +1.7592000e+01 1.25000000e+02 7.54677100e-03 1.23506900e-01
       21 -1    0    0  502  501 +0.0000000000e+00 +0.0000000000e+00 +5.6289171102e+01 5.6289171102e+01 0.0000000000e+00 0.0000e+00 1.0000e+00
       21 -1    0    0  501  502 -0.0000000000e+00 -0.0000000000e+00 -6.9396118712e+01 6.9396118712e+01 0.0000000000e+00 0.0000e+00 1.0000e+00
       25  1    1    2    0    0 +0.0000000000e+00 +0.0000000000e+00 -1.3106947610e+01 1.2568528981e+02 1.2500000000e+02 0.0000e+00 0.0000e+00
<mgrwt>
<rscale>  0 0.12500000E+03</rscale>
<asrwt>0</asrwt>
<pdfrwt beam="1">  1       21 0.86598725E-02 0.12500000E+03</pdfrwt>
<pdfrwt beam="2">  1       21 0.10676326E-01 0.12500000E+03</pdfrwt>
<totfact> 0.73949580E+06</totfact>
</mgrwt>
</event>
<event>
 3      1 +1.7592000e+01 1.25000000e+02 7.54677100e-03 1.23506900e-01
       21 -1    0    0  502  501 +0.0000000000e+00 +0.0000000000e+00 +2.2431740740e+01 2.2431740740e+01 0.0000000000e+00 0.0000e+00 -1.0000e+00
       21 -1    0    0  501  502 -0.0000000000e+00 -0.0000000000e+00 -1.7413940564e+02 1.7413940564e+02 0.0000000000e+00 0.0000e+00 -1.0000e+00
       25  1    1    2    0    0 +0.0000000000e+00 +0.0000000000e+00 -1.5170766490e+02 1.9657114638e+02 1.2500000000e+02 0.0000e+00 0.0000e+00
<mgrwt>
<rscale>  0 0.12500000E+03</rscale>
<asrwt>0</asrwt>
<pdfrwt beam="1">  1       21 0.34510369E-02 0.12500000E+03</pdfrwt>
<pdfrwt beam="2">  1       21 0.26790679E-01 0.12500000E+03</pdfrwt>
<totfact> 0.65299474E+06</totfact>
</mgrwt>
</event>
<event>
 3      1 +1.7592000e+01 1.25000000e+02 7.54677100e-03 1.23506900e-01
       21 -1    0    0  502  501 +0.0000000000e+00 +0.0000000000e+00 +1.1595823644e+01 1.1595823644e+01 0.0000000000e+00 0.0000e+00 1.0000e+00
       21 -1    0    0  501  502 -0.0000000000e+00 -0.0000000000e+00 -3.3686697209e+02 3.3686697209e+02 0.0000000000e+00 0.0000e+00 1.0000e+00
       25  1    1    2    0    0 +0.0000000000e+00 +0.0000000000e+00 -3.2527114844e+02 3.4846279573e+02 1.2500000000e+02 0.0000e+00 0.0000e+00
<mgrwt>
<rscale>  0 0.12500000E+03</rscale>
<asrwt>0</asrwt>
<pdfrwt beam="1">  1       21 0.17839732E-02 0.12500000E+03</pdfrwt>
<pdfrwt beam="2">  1       21 0.51825678E-01 0.12500000E+03</pdfrwt>
<totfact> 0.51652164E+06</totfact>
</mgrwt>
</event>
<event>
 3      1 +1.7592000e+01 1.25000000e+02 7.54677100e-03 1.23506900e-01
       21 -1    0    0  502  501 +0.0000000000e+00 +0.0000000000e+00 +1.9223210792e+03 1.9223210792e+03 0.0000000000e+00 0.0000e+00 -1.0000e+00
       21 -1    0    0  501  502 -0.0000000000e+00 -0.0000000000e+00 -2.0320486740e+00 2.0320486740e+00 0.0000000000e+00 0.0000e+00 -1.0000e+00
       25  1    1    2    0    0 +0.0000000000e+00 +0.0000000000e+00 +1.9202890305e+03 1.9243531279e+03 1.2500000000e+02 0.0000e+00 0.0000e+00
<mgrwt>
<rscale>  0 0.12500000E+03</rscale>
<asrwt>0</asrwt>
<pdfrwt beam="1">  1       21 0.29574025E+00 0.12500000E+03</pdfrwt>
<pdfrwt beam="2">  1       21 0.31262441E-03 0.12500000E+03</pdfrwt>
<totfact> 0.87095479E+05</totfact>
</mgrwt>
</event>
<event>
 3      1 +1.7592000e+01 1.25000000e+02 7.54677100e-03 1.23506900e-01
       21 -1    0    0  502  501 +0.0000000000e+00 +0.0000000000e+00 +2.4233986767e+01 2.4233986767e+01 0.0000000000e+00 0.0000e+00 1.0000e+00
       21 -1    0    0  501  502 -0.0000000000e+00 -0.0000000000e+00 -1.6118891363e+02 1.6118891363e+02 0.0000000000e+00 0.0000e+00 1.0000e+00
       25  1    1    2    0    0 +0.0000000000e+00 +0.0000000000e+00 -1.3695492686e+02 1.8542290040e+02 1.2500000000e+02 0.0000e+00 0.0000e+00
<mgrwt>
<rscale>  0 0.12500000E+03</rscale>
<asrwt>0</asrwt>
<pdfrwt beam="1">  1       21 0.37283058E-02 0.12500000E+03</pdfrwt>
<pdfrwt beam="2">  1       21 0.24798294E-01 0.12500000E+03</pdfrwt>
<totfact> 0.66534818E+06</totfact>
</mgrwt>
</event>
<event>
 3      1 +1.7592000e+01 1.25000000e+02 7.54677100e-03 1.23506900e-01
       21 -1    0    0  502  501 +0.0000000000e+00 +0.0000000000e+00 +2.9860758671e+02 2.9860758671e+02 0.0000000000e+00 0.0000e+00 -1.0000e+00
       21 -1    0    0  501  502 -0.0000000000e+00 -0.0000000000e+00 -1.3081549746e+01 1.3081549746e+01 0.0000000000e+00 0.0000e+00 -1.0000e+00
       25  1    1    2    0    0 +0.0000000000e+00 +0.0000000000e+00 +2.8552603696e+02 3.1168913645e+02 1.2500000000e+02 0.0000e+00 0.0000e+00
<mgrwt>
<rscale>  0 0.12500000E+03</rscale>
<asrwt>0</asrwt>
<pdfrwt beam="1">  1       21 0.45939623E-01 0.12500000E+03</pdfrwt>
<pdfrwt beam="2">  1       21 0.20125463E-02 0.12500000E+03</pdfrwt>
<totfact> 0.54498539E+06</totfact>
</mgrwt>
</event>
<event>
 3      1 +1.7592000e+01 1.25000000e+02 7.54677100e-03 1.23506900e-01
       21 -1    0    0  502  501 +0.0000000000e+00 +0.0000000000e+00 +3.2903679569e+02 3.2903679569e+02 0.0000000000e+00 0.0000e+00 -1.0000e+00
       21 -1    0    0  501  502 -0.0000000000e+00 -0.0000000000e+00 -1.1871772553e+01 1.1871772553e+01 0.0000000000e+00 0.0000e+00 -1.0000e+00
       25  1    1    2    0    0 +0.0000000000e+00 +0.0000000000e+00 +3.1716502314e+02 3.4090856825e+02 1.2500000000e+02 0.0000e+00 0.0000e+00
<mgrwt>
<rscale>  0 0.12500000E+03</rscale>
<asrwt>0</asrwt>
<pdfrwt beam="1">  1       21 0.50621039E-01 0.12500000E+03</pdfrwt>
<pdfrwt beam="2">  1       21 0.18264268E-02 0.12500000E+03</pdfrwt>
<totfact> 0.52216952E+06</totfact>
</mgrwt>
</event>
<event>
 3      1 +1.7592000e+01 1.25000000e+02 7.54677100e-03 1.23506900e-01
       21 -1    0    0  502  501 +0.0000000000e+00 +0.0000000000e+00 +5.9352032989e+01 5.9352032989e+01 0.0000000000e+00 0.0000e+00 -1.0000e+00
       21 -1    0    0  501  502 -0.0000000000e+00 -0.0000000000e+00 -6.5814931743e+01 6.5814931743e+01 0.0000000000e+00 0.0000e+00 -1.0000e+00
       25  1    1    2    0    0 +0.0000000000e+00 +0.0000000000e+00 -6.4628987540e+00 1.2516696473e+02 1.2500000000e+02 0.0000e+00 0.0000e+00
<mgrwt>
<rscale>  0 0.12500000E+03</rscale>
<asrwt>0</asrwt>
<pdfrwt beam="1">  1       21 0.91310820E-02 0.12500000E+03</pdfrwt>
<pdfrwt beam="2">  1       21 0.10125374E-01 0.12500000E+03</pdfrwt>
<totfact> 0.74021033E+06</totfact>
</mgrwt>
</event>
<event>
 3      1 +1.7592000e+01 1.25000000e+02 7.54677100e-03 1.23506900e-01
       21 -1    0    0  502  501 +0.0000000000e+00 +0.0000000000e+00 +1.3292402531e+02 1.3292402531e+02 0.0000000000e+00 0.0000e+00 -1.0000e+00
       21 -1    0    0  501  502 -0.0000000000e+00 -0.0000000000e+00 -2.9387087781e+01 2.9387087781e+01 0.0000000000e+00 0.0000e+00 -1.0000e+00
       25  1    1    2    0    0 +0.0000000000e+00 +0.0000000000e+00 +1.0353693753e+02 1.6231111309e+02 1.2500000000e+02 0.0000e+00 0.0000e+00
<mgrwt>
<rscale>  0 0.12500000E+03</rscale>
<asrwt>0</asrwt>
<pdfrwt beam="1">  1       21 0.20449850E-01 0.12500000E+03</pdfrwt>
<pdfrwt beam="2">  1       21 0.45210905E-02 0.12500000E+03</pdfrwt>
<totfact> 0.69238200E+06</totfact>
</mgrwt>
</event>
<event>
 3      1 +1.7592000e+01 1.25000000e+02 7.54677100e-03 1.23506900e-01
       21 -1    0    0  502  501 +0.0000000000e+00 +0.0000000000e+00 +3.1512687180e+01 3.1512687180e+01 0.0000000000e+00 0.0000e+00 1.0000e+00
       21 -1    0    0  501  502 -0.0000000000e+00 -0.0000000000e+00 -1.2395801024e+02 1.2395801024e+02 0.0000000000e+00 0.0000e+00 1.0000e+00
       25  1    1    2    0    0 +0.0000000000e+00 +0.0000000000e+00 -9.2445323057e+01 1.5547069742e+02 1.2500000000e+02 0.0000e+00 0.0000e+00
<mgrwt>
<rscale>  0 0.12500000E+03</rscale>
<asrwt>0</asrwt>
<pdfrwt beam="1">  1       21 0.48481057E-02 0.12500000E+03</pdfrwt>
<pdfrwt beam="2">  1       21 0.19070463E-01 0.12500000E+03</pdfrwt>
<totfact> 0.70077204E+06</totfact>
</mgrwt>
</event>
<event>
 3      1 +1.7592000e+01 1.25000000e+02 7.54677100e-03 1.23506900e-01
       21 -1    0    0  502  501 +0.0000000000e+00 +0.0000000000e+00 +1.7577865023e+02 1.7577865023e+02 0.0000000000e+00 0.0000e+00 1.0000e+00
       21 -1    0    0  501  502 -0.0000000000e+00 -0.0000000000e+00 -2.2222550889e+01 2.2222550889e+01 0.0000000000e+00 0.0000e+00 1.0000e+00
       25  1    1    2    0    0 +0.0000000000e+00 +0.0000000000e+00 +1.5355609934e+02 1.9800120112e+02 1.2500000000e+02 0.0000e+00 0.0000e+00
<mgrwt>
<rscale>  0 0.12500000E+03</rscale>
<asrwt>0</asrwt>
<pdfrwt beam="1">  1       21 0.27042868E-01 0.12500000E+03</pdfrwt>
<pdfrwt beam="2">  1       21 0.34188541E-02 0.12500000E+03</pdfrwt>
<totfact> 0.65144038E+06</totfact>
</mgrwt>
</event>
<event>
 3      1 +1.7592000e+01 1.25000000e+02 7.54677100e-03 1.23506900e-01
       21 -1    0    0  502  501 +0.0000000000e+00 +0.0000000000e+00 +3.1105265850e+01 3.1105265850e+01 0.0000000000e+00 0.0000e+00 1.0000e+00
       21 -1    0    0  501  502 -0.0000000000e+00 -0.0000000000e+00 -1.2558163042e+02 1.2558163042e+02 0.0000000000e+00 0.0000e+00 1.0000e+00
       25  1    1    2    0    0 +0.0000000000e+00 +0.0000000000e+00 -9.4476364567e+01 1.5668689627e+02 1.2500000000e+02 0.0000e+00 0.0000e+00
<mgrwt>
<rscale>  0 0.12500000E+03</rscale>
<asrwt>0</asrwt>
<pdfrwt beam="1">  1       21 0.47854256E-02 0.12500000E+03</pdfrwt>
<pdfrwt beam="2">  1       21 0.19320250E-01 0.12500000E+03</pdfrwt>
<totfact> 0.69926604E+06</totfact>
</mgrwt>
</event>
<event>
 3      1 +1.7592000e+01 1.25000000e+02 7.54677100e-03 1.23506900e-01
       21 -1    0    0  502  501 +0.0000000000e+00 +0.0000000000e+00 +8.4784273363e+00 8.4784273363e+00 0.0000000000e+00 0.0000e+00 1.0000e+00
       21 -1    0    0  501  502 -0.0000000000e+00 -0.0000000000e+00 -4.6072813330e+02 4.6072813330e+02 0.0000000000e+00 0.0000e+00 1.0000e+00
       25  1    1    2    0    0 +0.0000000000e+00 +0.0000000000e+00 -4.5224970597e+02 4.6920656064e+02 1.2500000000e+02 0.0000e+00 0.0000e+00
<mgrwt>
<rscale>  0 0.12500000E+03</rscale>
<asrwt>0</asrwt>
<pdfrwt beam="1">  1       21 0.13043736E-02 0.12500000E+03</pdfrwt>
<pdfrwt beam="2">  1       21 0.70881244E-01 0.12500000E+03</pdfrwt>
<totfact> 0.43764861E+06</totfact>
</mgrwt>
</event>
<event>
 3      1 +1.7592000e+01 1.25000000e+02 7.54677100e-03 1.23506900e-01
       21 -1    0    0  502  501 +0.0000000000e+00 +0.0000000000e+00 +3.2865883815e+01 3.2865883815e+01 0.0000000000e+00 0.0000e+00 1.0000e+00
       21 -1    0    0  501  502 -0.0000000000e+00 -0.0000000000e+00 -1.1885425087e+02 1.1885425087e+02 0.0000000000e+00 0.0000e+00 1.0000e+00
       25  1    1    2    0    0 +0.0000000000e+00 +0.0000000000e+00 -8.5988367054e+01 1.5172013468e+02 1.2500000000e+02 0.0000e+00 0.0000e+00
<mgrwt>
<rscale>  0 0.12500000E+03</rscale>
<asrwt>0</asrwt>
<pdfrwt beam="1">  1       21 0.50562898E-02 0.12500000E+03</pdfrwt>
<pdfrwt beam="2">  1       21 0.18285269E-01 0.12500000E+03</pdfrwt>
<totfact> 0.70543784E+06</totfact>
</mgrwt>
</event>
<event>
 3      1 +1.7592000e+01 1.25000000e+02 7.54677100e-03 1.23506900e-01
       21 -1    0    0  502  501 +0.0000000000e+00 +0.0000000000e+00 +5.1065990174e+01 5.1065990174e+01 0.0000000000e+00 0.0000e+00 1.0000e+00
       21 -1    0    0  501  502 -0.0000000000e+00 -0.0000000000e+00 -7.6494159551e+01 7.6494159551e+01 0.0000000000e+00 0.0000e+00 1.0000e+00
       25  1    1    2    0    0 +0.0000000000e+00 +0.0000000000e+00 -2.5428169377e+01 1.2756014973e+02 1.2500000000e+02 0.0000e+00 0.0000e+00
<mgrwt>
<rscale>  0 0.12500000E+03</rscale>
<asrwt>0</asrwt>
<pdfrwt beam="1">  1       21 0.78563062E-02 0.12500000E+03</pdfrwt>
<pdfrwt beam="2">  1       21 0.11768332E-01 0.12500000E+03</pdfrwt>
<totfact> 0.73693066E+06</totfact>
</mgrwt>
</event>
<event>
 3      1 +1.7592000e+01 1.25000000e+02 7.54677100e-03 1.23506900e-01
       21 -1    0    0  502  501 +0.0000000000e+00 +0.0000000000e+00 +8.7266010884e+01 8.7266010884e+01 0.0000000000e+00 0.0000e+00 -1.0000e+00
       21 -1    0    0  501  502 -0.0000000000e+00 -0.0000000000e+00 -4.4762559448e+01 4.4762559448e+01 0.0000000000e+00 0.0000e+00 -1.0000e+00
       25  1    1    2    0    0 +0.0000000000e+00 +0.0000000000e+00 +4.2503451435e+01 1.3202857033e+02 1.2500000000e+02 0.0000e+00 0.0000e+00
<mgrwt>
<rscale>  0 0.12500000E+03</rscale>
<asrwt>0</asrwt>
<pdfrwt beam="1">  1       21 0.13425540E-01 0.12500000E+03</pdfrwt>
<pdfrwt beam="2">  1       21 0.68865476E-02 0.12500000E+03</pdfrwt>
<totfact> 0.73092397E+06</totfact>
</mgrwt>
</event>
<event>
 3      1 +1.7592000e+01 1.25000000e+02 7.54677100e-03 1.23506900e-01
       21 -1    0    0  502  501 +0.0000000000e+00 +0.0000000000e+00 +1.0298372105e+03 1.0298372105e+03 0.0000000000e+00 0.0000e+00 1.0000e+00
       21 -1    0    0  501  502 -0.0000000000e+00 -0.0000000000e+00 -3.7930752162e+00 3.7930752162e+00 0.0000000000e+00 0.0000e+00 1.0000e+00
       25  1    1    2    0    0 +0.0000000000e+00 +0.0000000000e+00 +1.0260441353e+03 1.0336302858e+03 1.2500000000e+02 0.0000e+00 0.0000e+00
<mgrwt>
<rscale>  0 0.12500000E+03</rscale>
<asrwt>0</asrwt>
<pdfrwt beam="1">  1       21 0.15843627E+00 0.12500000E+03</pdfrwt>
<pdfrwt beam="2">  1       21 0.58355086E-03 0.12500000E+03</pdfrwt>
<totfact> 0.22790905E+06</totfact>
</mgrwt>
</event>
<event>
 3      1 +1.7592000e+01 1.25000000e+02 7.54677100e-03 1.23506900e-01
       21 -1    0    0  502  501 +0.0000000000e+00 +0.0000000000e+00 +1.0021536552e+01 1.0021536552e+01 0.0000000000e+00 0.0000e+00 -1.0000e+00
       21 -1    0    0  501  502 -0.0000000000e+00 -0.0000000000e+00 -3.8978553636e+02 3.8978553636e+02 0.0000000000e+00 0.0000e+00 -1.0000e+00
       25  1    1    2    0    0 +0.0000000000e+00 +0.0000000000e+00 -3.7976399981e+02 3.9980707291e+02 1.2500000000e+02 0.0000e+00 0.0000e+00
<mgrwt>
<rscale>  0 0.12500000E+03</rscale>
<asrwt>0</asrwt>
<pdfrwt beam="1">  1       21 0.15417751E-02 0.12500000E+03</pdfrwt>
<pdfrwt beam="2">  1       21 0.59966998E-01 0.12500000E+03</pdfrwt>
<totfact> 0.48054153E+06</totfact>
</mgrwt>
</event>
<event>
 3      1 +1.7592000e+01 1.25000000e+02 7.54677100e-03 1.23506900e-01
       21 -1    0    0  502  501 +0.0000000000e+00 +0.0000000000e+00 +1.3612639601e+01 1.3612639601e+01 0.0000000000e+00 0.0000e+00 1.0000e+00
       21 -1    0    0  501  502 -0.0000000000e+00 -0.0000000000e+00 -2.8695757139e+02 2.8695757139e+02 0.0000000000e+00 0.0000e+00 1.0000e+00
       25  1    1    2    0    0 +0.0000000000e+00 +0.0000000000e+00 -2.7334493179e+02 3.0057021099e+02 1.2500000000e+02 0.0000e+00 0.0000e+00
<mgrwt>
<rscale>  0 0.12500000E+03</rscale>
<asrwt>0</asrwt>
<pdfrwt beam="1">  1       21 0.20942524E-02 0.12500000E+03</pdfrwt>
<pdfrwt beam="2">  1       21 0.44147315E-01 0.12500000E+03</pdfrwt>
<totfact> 0.55408822E+06</totfact>
</mgrwt>
</event>
<event>
 3      1 +1.7592000e+01 1.25000000e+02 7.54677100e-03 1.23506900e-01
       21 -1    0    0  502  501 +0.0000000000e+00 +0.0000000000e+00 +1.6352984725e+02 1.6352984725e+02 0.0000000000e+00 0.0000e+00 1.0000e+00
       21 -1    0    0  501  502 -0.0000000000e+00 -0.0000000000e+00 -2.3887076675e+01 2.3887076675e+01 0.0000000000e+00 0.0000e+00 1.0000e+00
       25  1    1    2    0    0 +0.0000000000e+00 +0.0000000000e+00 +1.3964277058e+02 1.8741692393e+02 1.2500000000e+02 0.0000e+00 0.0000e+00
<mgrwt>
<rscale>  0 0.12500000E+03</rscale>
<asrwt>0</asrwt>
<pdfrwt beam="1">  1       21 0.25158437E-01 0.12500000E+03</pdfrwt>
<pdfrwt beam="2">  1       21 0.36749350E-02 0.12500000E+03</pdfrwt>
<totfact> 0.66310706E+06</totfact>
</mgrwt>
</event>
<event>
 3      1 +1.7592000e+01 1.25000000e+02 7.54677100e-03 1.23506900e-01
       21 -1    0    0  502  501 +0.0000000000e+00 +0.0000000000e+00 +1.6702284554e+02 1.6702284554e+02 0.0000000000e+00 0.0000e+00 -1.0000e+00
       21 -1    0    0  501  502 -0.0000000000e+00 -0.0000000000e+00 -2.3387519158e+01 2.3387519158e+01 0.0000000000e+00 0.0000e+00 -1.0000e+00
       25  1    1    2    0    0 +0.0000000000e+00 +0.0000000000e+00 +1.4363532638e+02 1.9041036470e+02 1.2500000000e+02 0.0000e+00 0.0000e+00
<mgrwt>
<rscale>  0 0.12500000E+03</rscale>
<asrwt>0</asrwt>
<pdfrwt beam="1">  1       21 0.25695822E-01 0.12500000E+03</pdfrwt>
<pdfrwt beam="2">  1       21 0.35980800E-02 0.12500000E+03</pdfrwt>
<totfact> 0.65976885E+06</totfact>
</mgrwt>
</event>
<event>
 3      1 +1.7592000e+01 1.25000000e+02 7.54677100e-03 1.23506900e-01
       21 -1    0    0  502  501 +0.0000000000e+00 +0.0000000000e+00 +2.1764673762e+02 2.1764673762e+02 0.0000000000e+00 0.0000e+00 -1.0000e+00
       21 -1    0    0  501  502 -0.0000000000e+00 -0.0000000000e+00 -1.7947661623e+01 1.7947661623e+01 0.0000000000e+00 0.0000e+00 -1.0000e+00
       25  1    1    2    0    0 +0.0000000000e+00 +0.0000000000e+00 +1.9969907599e+02 2.3559439924e+02 1.2500000000e+02 0.0000e+00 0.0000e+00
<mgrwt>
<rscale>  0 0.12500000E+03</rscale>
<asrwt>0</asrwt>
<pdfrwt beam="1">  1       21 0.33484112E-01 0.12500000E+03</pdfrwt>
<pdfrwt beam="2">  1       21 0.27611789E-02 0.12500000E+03</pdfrwt>
<totfact> 0.61261607E+06</totfact>
</mgrwt>
</event>
<event>
 3      1 +1.7592000e+01 1.25000000e+02 7.54677100e-03 1.23506900e-01
       21 -1    0    0  502  501 +0.0000000000e+00 +0.0000000000e+00 +1.4348820922e+01 1.4348820922e+01 0.0000000000e+00 0.0000e+00 1.0000e+00
       21 -1    0    0  501  502 -0.0000000000e+00 -0.0000000000e+00 -2.7223491193e+02 2.7223491193e+02 0.0000000000e+00 0.0000e+00 1.0000e+00
       25  1    1    2    0    0 +0.0000000000e+00 +0.0000000000e+00 -2.5788609101e+02 2.8658373285e+02 1.2500000000e+02 0.0000e+00 0.0000e+00
<mgrwt>
<rscale>  0 0.12500000E+03</rscale>
<asrwt>0</asrwt>
<pdfrwt beam="1">  1       21 0.22075110E-02 0.12500000E+03</pdfrwt>
<pdfrwt beam="2">  1       21 0.41882293E-01 0.12500000E+03</pdfrwt>
<totfact> 0.56589879E+06</totfact>
</mgrwt>
</event>
<event>
 3      1 +1.7592000e+01 1.25000000e+02 7.54677100e-03 1.23506900e-01
       21 -1    0    0  502  501 +0.0000000000e+00 +0.0000000000e+00 +3.8084657272e+01 3.8084657272e+01 0.0000000000e+00 0.0000e+00 1.0000e+00
       21 -1    0    0  501  502 -0.0000000000e+00 -0.0000000000e+00 -1.0256755029e+02 1.0256755029e+02 0.0000000000e+00 0.0000e+00 1.0000e+00
       25  1    1    2    0    0 +0.0000000000e+00 +0.0000000000e+00 -6.4482893018e+01 1.4065220756e+02 1.2500000000e+02 0.0000e+00 0.0000e+00
<mgrwt>
<rscale>  0 0.12500000E+03</rscale>
<asrwt>0</asrwt>
<pdfrwt beam="1">  1       21 0.58591781E-02 0.12500000E+03</pdfrwt>
<pdfrwt beam="2">  1       21 0.15779623E-01 0.12500000E+03</pdfrwt>
<totfact> 0.71954278E+06</totfact>
</mgrwt>
</event>
<event>
 3      1 +1.7592000e+01 1.25000000e+02 7.54677100e-03 1.23506900e-01
       21 -1    0    0  502  501 +0.0000000000e+00 +0.0000000000e+00 +4.4123203293e+00 4.4123203293e+00 0.0000000000e+00 0.0000e+00 -1.0000e+00
       21 -1    0    0  501  502 -0.0000000000e+00 -0.0000000000e+00 -8.8530517018e+02 8.8530517018e+02 0.0000000000e+00 0.0000e+00 -1.0000e+00
       25  1    1    2    0    0 +0.0000000000e+00 +0.0000000000e+00 -8.8089284985e+02 8.8971749051e+02 1.2500000000e+02 0.0000e+00 0.0000e+00
<mgrwt>
<rscale>  0 0.12500000E+03</rscale>
<asrwt>0</asrwt>
<pdfrwt beam="1">  1       21 0.67881830E-03 0.12500000E+03</pdfrwt>
<pdfrwt beam="2">  1       21 0.13620084E+00 0.12500000E+03</pdfrwt>
<totfact> 0.26595378E+06</totfact>
</mgrwt>
</event>
<event>
 3      1 +1.7592000e+01 1.25000000e+02 7.54677100e-03 1.23506900e-01
       21 -1    0    0  502  501 +0.0000000000e+00 +0.0000000000e+00 +3.8911931517e+01 3.8911931517e+01 0.0000000000e+00 0.0000e+00 -1.0000e+00
       21 -1    0    0  501  502 -0.0000000000e+00 -0.0000000000e+00 -1.0038694682e+02 1.0038694682e+02 0.0000000000e+00 0.0000e+00 -1.0000e+00
       25  1    1    2    0    0 +0.0000000000e+00 +0.0000000000e+00 -6.1475015307e+01 1.3929887834e+02 1.2500000000e+02 0.0000e+00 0.0000e+00
<mgrwt>
<rscale>  0 0.12500000E+03</rscale>
<asrwt>0</asrwt>
<pdfrwt beam="1">  1       21 0.59864512E-02 0.12500000E+03</pdfrwt>
<pdfrwt beam="2">  1       21 0.15444145E-01 0.12500000E+03</pdfrwt>
<totfact> 0.72130971E+06</totfact>
</mgrwt>
</event>
<event>
 3      1 +1.7592000e+01 1.25000000e+02 7.54677100e-03 1.23506900e-01
       21 -1    0    0  502  501 +0.0000000000e+00 +0.0000000000e+00 +2.7554841434e+01 2.7554841434e+01 0.0000000000e+00 0.0000e+00 1.0000e+00
       21 -1    0    0  501  502 -0.0000000000e+00 -0.0000000000e+00 -1.4176274646e+02 1.4176274646e+02 0.0000000000e+00 0.0000e+00 1.0000e+00
       25  1    1    2    0    0 +0.0000000000e+00 +0.0000000000e+00 -1.1420790503e+02 1.6931758789e+02 1.2500000000e+02 0.0000e+00 0.0000e+00
<mgrwt>
<rscale>  0 0.12500000E+03</rscale>
<asrwt>0</asrwt>
<pdfrwt beam="1">  1       21 0.42392064E-02 0.12500000E+03</pdfrwt>
<pdfrwt beam="2">  1       21 0.21809653E-01 0.12500000E+03</pdfrwt>
<totfact> 0.68398529E+06</totfact>
</mgrwt>
</event>
<event>
 3      1 +1.7592000e+01 1.25000000e+02 7.54677100e-03 1.23506900e-01
       21 -1    0    0  502  501 +0.0000000000e+00 +0.0000000000e+00 +5.2348921197e+02 5.2348921197e+02 0.0000000000e+00 0.0000e+00 1.0000e+00
       21 -1    0    0  501  502 -0.0000000000e+00 -0.0000000000e+00 -7.4619493787e+00 7.4619493787e+00 0.0000000000e+00 0.0000e+00 1.0000e+00
       25  1    1    2    0    0 +0.0000000000e+00 +0.0000000000e+00 +5.1602726259e+02 5.3095116135e+02 1.2500000000e+02 0.0000e+00 0.0000e+00
<mgrwt>
<rscale>  0 0.12500000E+03</rscale>
<asrwt>0</asrwt>
<pdfrwt beam="1">  1       21 0.80536773E-01 0.12500000E+03</pdfrwt>
<pdfrwt beam="2">  1       21 0.11479926E-02 0.12500000E+03</pdfrwt>
<totfact> 0.40413782E+06</totfact>
</mgrwt>
</event>
<event>
 3      1 +1.7592000e+01 1.25000000e+02 7.54677100e-03 1.23506900e-01
       21 -1    0    0  502  501 +0.0000000000e+00 +0.0000000000e+00 +1.1342069117e+01 1.1342069117e+01 0.0000000000e+00 0.0000e+00 1.0000e+00
       21 -1    0    0  501  502 -0.0000000000e+00 -0.0000000000e+00 -3.4440364978e+02 3.4440364978e+02 0.0000000000e+00 0.0000e+00 1.0000e+00
       25  1    1    2    0    0 +0.0000000000e+00 +0.0000000000e+00 -3.3306158066e+02 3.5574571889e+02 1.2500000000e+02 0.0000e+00 0.0000e+00
<mgrwt>
<rscale>  0 0.12500000E+03</rscale>
<asrwt>0</asrwt>
<pdfrwt beam="1">  1       21 0.17449337E-02 0.12500000E+03</pdfrwt>
<pdfrwt beam="2">  1       21 0.52985178E-01 0.12500000E+03</pdfrwt>
<totfact> 0.51116873E+06</totfact>
</mgrwt>
</event>
<event>
 3      1 +1.7592000e+01 1.25000000e+02 7.54677100e-03 1.23506900e-01
       21 -1    0    0  502  501 +0.0000000000e+00 +0.0000000000e+00 +1.9673438827e+02 1.9673438827e+02 0.0000000000e+00 0.0000e+00 1.0000e+00
       21 -1    0    0  501  502 -0.0000000000e+00 -0.0000000000e+00 -1.9855450968e+01 1.9855450968e+01 0.0000000000e+00 0.0000e+00 1.0000e+00
       25  1    1    2    0    0 +0.0000000000e+00 +0.0000000000e+00 +1.7687893731e+02 2.1658983924e+02 1.2500000000e+02 0.0000e+00 0.0000e+00
<mgrwt>
<rscale>  0 0.12500000E+03</rscale>
<asrwt>0</asrwt>
<pdfrwt beam="1">  1       21 0.30266828E-01 0.12500000E+03</pdfrwt>
<pdfrwt beam="2">  1       21 0.30546849E-02 0.12500000E+03</pdfrwt>
<totfact> 0.63172810E+06</totfact>
</mgrwt>
</event>
<event>
 3      1 +1.7592000e+01 1.25000000e+02 7.54677100e-03 1.23506900e-01
       21 -1    0    0  502  501 +0.0000000000e+00 +0.0000000000e+00 +3.8286486937e+00 3.8286486937e+00 0.0000000000e+00 0.0000e+00 -1.0000e+00
       21 -1    0    0  501  502 -0.0000000000e+00 -0.0000000000e+00 -1.0202685889e+03 1.0202685889e+03 0.0000000000e+00 0.0000e+00 -1.0000e+00
       25  1    1    2    0    0 +0.0000000000e+00 +0.0000000000e+00 -1.0164399402e+03 1.0240972376e+03 1.2500000000e+02 0.0000e+00 0.0000e+00
<mgrwt>
<rscale>  0 0.12500000E+03</rscale>
<asrwt>0</asrwt>
<pdfrwt beam="1">  1       21 0.58902244E-03 0.12500000E+03</pdfrwt>
<pdfrwt beam="2">  1       21 0.15696451E+00 0.12500000E+03</pdfrwt>
<totfact> 0.23022849E+06</totfact>
</mgrwt>
</event>
<event>
 3      1 +1.7592000e+01 1.25000000e+02 7.54677100e-03 1.23506900e-01
       21 -1    0    0  502  501 +0.0000000000e+00 +0.0000000000e+00 +1.5009307934e+01 1.5009307934e+01 0.0000000000e+00 0.0000e+00 1.0000e+00
       21 -1    0    0  501  502 -0.0000000000e+00 -0.0000000000e+00 -2.6025517080e+02 2.6025517080e+02 0.0000000000e+00 0.0000e+00 1.0000e+00
       25  1    1    2    0    0 +0.0000000000e+00 +0.0000000000e+00 -2.4524586287e+02 2.7526447874e+02 1.2500000000e+02 0.0000e+00 0.0000e+00
<mgrwt>
<rscale>  0 0.12500000E+03</rscale>
<asrwt>0</asrwt>
<pdfrwt beam="1">  1       21 0.23091245E-02 0.12500000E+03</pdfrwt>
<pdfrwt beam="2">  1       21 0.40039254E-01 0.12500000E+03</pdfrwt>
<totfact> 0.57576546E+06</totfact>
</mgrwt>
</event>
<event>
 3      1 +1.7592000e+01 1.25000000e+02 7.54677100e-03 1.23506900e-01
       21 -1    0    0  502  501 +0.0000000000e+00 +0.0000000000e+00 +3.5585251750e+02 3.5585251750e+02 0.0000000000e+00 0.0000e+00 -1.0000e+00
       21 -1    0    0  501  502 -0.0000000000e+00 -0.0000000000e+00 -1.0977159941e+01 1.0977159941e+01 0.0000000000e+00 0.0000e+00 -1.0000e+00
       25  1    1    2    0    0 +0.0000000000e+00 +0.0000000000e+00 +3.4487535756e+02 3.6682967744e+02 1.2500000000e+02 0.0000e+00 0.0000e+00
<mgrwt>
<rscale>  0 0.12500000E+03</rscale>
<asrwt>0</asrwt>
<pdfrwt beam="1">  1       21 0.54746532E-01 0.12500000E+03</pdfrwt>
<pdfrwt beam="2">  1       21 0.16887941E-02 0.12500000E+03</pdfrwt>
<totfact> 0.50319030E+06</totfact>
</mgrwt>
</event>
<event>
 3      1 +1.7592000e+01 1.25000000e+02 7.54677100e-03 1.23506900e-01
       21 -1    0    0  502  501 +0.0000000000e+00 +0.0000000000e+00 +7.4399569618e+01 7.4399569618e+01 0.0000000000e+00 0.0000e+00 1.0000e+00
       21 -1    0    0  501  502 -0.0000000000e+00 -0.0000000000e+00 -5.2503663933e+01 5.2503663933e+01 0.0000000000e+00 0.0000e+00 1.0000e+00
       25  1    1    2    0    0 +0.0000000000e+00 +0.0000000000e+00 +2.1895905685e+01 1.2690323355e+02 1.2500000000e+02 0.0000e+00 0.0000e+00
<mgrwt>
<rscale>  0 0.12500000E+03</rscale>
<asrwt>0</asrwt>
<pdfrwt beam="1">  1       21 0.11446088E-01 0.12500000E+03</pdfrwt>
<pdfrwt beam="2">  1       21 0.80774868E-02 0.12500000E+03</pdfrwt>
<totfact> 0.73782315E+06</totfact>
</mgrwt>
</event>
<event>
 3      1 +1.7592000e+01 1.25000000e+02 7.54677100e-03 1.23506900e-01
       21 -1    0    0  502  501 +0.0000000000e+00 +0.0000000000e+00 +1.4628656393e+02 1.4628656393e+02 0.0000000000e+00 0.0000e+00 1.0000e+00
       21 -1    0    0  501  502 -0.0000000000e+00 -0.0000000000e+00 -2.6702725768e+01 2.6702725768e+01 0.0000000000e+00 0.0000e+00 1.0000e+00
       25  1    1    2    0    0 +0.0000000000e+00 +0.0000000000e+00 +1.1958383816e+02 1.7298928969e+02 1.2500000000e+02 0.0000e+00 0.0000e+00
<mgrwt>
<rscale>  0 0.12500000E+03</rscale>
<asrwt>0</asrwt>
<pdfrwt beam="1">  1       21 0.22505625E-01 0.12500000E+03</pdfrwt>
<pdfrwt beam="2">  1       21 0.41081117E-02 0.12500000E+03</pdfrwt>
<totfact> 0.67965027E+06</totfact>
</mgrwt>
</event>
<event>
 3      1 +1.7592000e+01 1.25000000e+02 7.54677100e-03 1.23506900e-01
       21 -1    0    0  502  501 +0.0000000000e+00 +0.0000000000e+00 +2.9983314074e+01 2.9983314074e+01 0.0000000000e+00 0.0000e+00 1.0000e+00
       21 -1    0    0  501  502 -0.0000000000e+00 -0.0000000000e+00 -1.3028079519e+02 1.3028079519e+02 0.0000000000e+00 0.0000e+00 1.0000e+00
       25  1    1    2    0    0 +0.0000000000e+00 +0.0000000000e+00 -1.0029748112e+02 1.6026410926e+02 1.2500000000e+02 0.0000e+00 0.0000e+00
<mgrwt>
<rscale>  0 0.12500000E+03</rscale>
<asrwt>0</asrwt>
<pdfrwt beam="1">  1       21 0.46128175E-02 0.12500000E+03</pdfrwt>
<pdfrwt beam="2">  1       21 0.20043199E-01 0.12500000E+03</pdfrwt>
<totfact> 0.69487239E+06</totfact>
</mgrwt>
</event>
<event>
 3      1 +1.7592000e+01 1.25000000e+02 7.54677100e-03 1.23506900e-01
       21 -1    0    0  502  501 +0.0000000000e+00 +0.0000000000e+00 +2.5680528139e+00 2.5680528139e+00 0.0000000000e+00 0.0000e+00 -1.0000e+00
       21 -1    0    0  501  502 -0.0000000000e+00 -0.0000000000e+00 -1.5210941063e+03 1.5210941063e+03 0.0000000000e+00 0.0000e+00 -1.0000e+00
       25  1    1    2    0    0 +0.0000000000e+00 +0.0000000000e+00 -1.5185260535e+03 1.5236621592e+03 1.2500000000e+02 0.0000e+00 0.0000e+00
<mgrwt>
<rscale>  0 0.12500000E+03</rscale>
<asrwt>0</asrwt>
<pdfrwt beam="1">  1       21 0.39508643E-03 0.12500000E+03</pdfrwt>
<pdfrwt beam="2">  1       21 0.23401366E+00 0.12500000E+03</pdfrwt>
<totfact> 0.13645644E+06</totfact>
</mgrwt>
</event>
<event>
 3      1 +1.7592000e+01 1.25000000e+02 7.54677100e-03 1.23506900e-01
       21 -1    0    0  502  501 +0.0000000000e+00 +0.0000000000e+00 +2.1673909558e+02 2.1673909558e+02 0.0000000000e+00 0.0000e+00 -1.0000e+00
       21 -1    0    0  501  502 -0.0000000000e+00 -0.0000000000e+00 -1.8022821354e+01 1.8022821354e+01 0.0000000000e+00 0.0000e+00 -1.0000e+00
       25  1    1    2    0    0 +0.0000000000e+00 +0.0000000000e+00 +1.9871627423e+02 2.3476191693e+02 1.2500000000e+02 0.0000e+00 0.0000e+00
<mgrwt>
<rscale>  0 0.12500000E+03</rscale>
<asrwt>0</asrwt>
<pdfrwt beam="1">  1       21 0.33344474E-01 0.12500000E+03</pdfrwt>
<pdfrwt beam="2">  1       21 0.27727419E-02 0.12500000E+03</pdfrwt>
<totfact> 0.61343255E+06</totfact>
</mgrwt>
</event>
<event>
 3      1 +1.7592000e+01 1.25000000e+02 7.54677100e-03 1.23506900e-01
       21 -1    0    0  502  501 +0.0000000000e+00 +0.0000000000e+00 +6.6350005698e+00 6.6350005698e+00 0.0000000000e+00 0.0000e+00 1.0000e+00
       21 -1    0    0  501  502 -0.0000000000e+00 -0.0000000000e+00 -5.8873393588e+02 5.8873393588e+02 0.0000000000e+00 0.0000e+00 1.0000e+00
       25  1    1    2    0    0 +0.0000000000e+00 +0.0000000000e+00 -5.8209893531e+02 5.9536893645e+02 1.2500000000e+02 0.0000e+00 0.0000e+00
<mgrwt>
<rscale>  0 0.12500000E+03</rscale>
<asrwt>0</asrwt>
<pdfrwt beam="1">  1       21 0.10207695E-02 0.12500000E+03</pdfrwt>
<pdfrwt beam="2">  1       21 0.90574438E-01 0.12500000E+03</pdfrwt>
<totfact> 0.37302909E+06</totfact>
</mgrwt>
</event>
<event>
 3      1 +1.7592000e+01 1.25000000e+02 7.54677100e-03 1.23506900e-01
       21 -1    0    0  502  501 +0.0000000000e+00 +0.0000000000e+00 +5.0536819244e+02 5.0536819244e+02 0.0000000000e+00 0.0000e+00 -1.0000e+00
       21 -1    0    0  501  502 -0.0000000000e+00 -0.0000000000e+00 -7.7295129738e+00 7.7295129738e+00 0.0000000000e+00 0.0000e+00 -1.0000e+00
       25  1    1    2    0    0 +0.0000000000e+00 +0.0000000000e+00 +4.9763867946e+02 5.1309770541e+02 1.2500000000e+02 0.0000e+00 0.0000e+00
<mgrwt>
<rscale>  0 0.12500000E+03</rscale>
<asrwt>0</asrwt>
<pdfrwt beam="1">  1       21 0.77748927E-01 0.12500000E+03</pdfrwt>
<pdfrwt beam="2">  1       21 0.11891562E-02 0.12500000E+03</pdfrwt>
<totfact> 0.41342554E+06</totfact>
</mgrwt>
</event>
<event>
 3      1 +1.7592000e+01 1.25000000e+02 7.54677100e-03 1.23506900e-01
       21 -1    0    0  502  501 +0.0000000000e+00 +0.0000000000e+00 +7.5538297225e+02 7.5538297225e+02 0.0000000000e+00 0.0000e+00 -1.0000e+00
       21 -1    0    0  501  502 -0.0000000000e+00 -0.0000000000e+00 -5.1712179696e+00 5.1712179696e+00 0.0000000000e+00 0.0000e+00 -1.0000e+00
       25  1    1    2    0    0 +0.0000000000e+00 +0.0000000000e+00 +7.5021175428e+02 7.6055419022e+02 1.2500000000e+02 0.0000e+00 0.0000e+00
<mgrwt>
<rscale>  0 0.12500000E+03</rscale>
<asrwt>0</asrwt>
<pdfrwt beam="1">  1       21 0.11621268E+00 0.12500000E+03</pdfrwt>
<pdfrwt beam="2">  1       21 0.79557259E-03 0.12500000E+03</pdfrwt>
<totfact> 0.30701107E+06</totfact>
</mgrwt>
</event>
<event>
 3      1 +1.7592000e+01 1.25000000e+02 7.54677100e-03 1.23506900e-01
       21 -1    0    0  502  501 +0.0000000000e+00 +0.0000000000e+00 +1.1041321165e+01 1.1041321165e+01 0.0000000000e+00 0.0000e+00 -1.0000e+00
       21 -1    0    0  501  502 -0.0000000000e+00 -0.0000000000e+00 -3.5378465507e+02 3.5378465507e+02 0.0000000000e+00 0.0000e+00 -1.0000e+00
       25  1    1    2    0    0 +0.0000000000e+00 +0.0000000000e+00 -3.4274333390e+02 3.6482597623e+02 1.2500000000e+02 0.0000e+00 0.0000e+00
<mgrwt>
<rscale>  0 0.12500000E+03</rscale>
<asrwt>0</asrwt>
<pdfrwt beam="1">  1       21 0.16986647E-02 0.12500000E+03</pdfrwt>
<pdfrwt beam="2">  1       21 0.54428411E-01 0.12500000E+03</pdfrwt>
<totfact> 0.50461785E+06</totfact>
</mgrwt>
</event>
<event>
 3      1 +1.7592000e+01 1.25000000e+02 7.54677100e-03 1.23506900e-01
       21 -1    0    0  502  501 +0.0000000000e+00 +0.0000000000e+00 +9.1829640163e+01 9.1829640163e+01 0.0000000000e+00 0.0000e+00 1.0000e+00
       21 -1    0    0  501  502 -0.0000000000e+00 -0.0000000000e+00 -4.2538008350e+01 4.2538008350e+01 0.0000000000e+00 0.0000e+00 1.0000e+00
       25  1    1    2    0    0 +0.0000000000e+00 +0.0000000000e+00 +4.9291631813e+01 1.3436764851e+02 1.2500000000e+02 0.0000e+00 0.0000e+00
<mgrwt>
<rscale>  0 0.12500000E+03</rscale>
<asrwt>0</asrwt>
<pdfrwt beam="1">  1       21 0.14127637E-01 0.12500000E+03</pdfrwt>
<pdfrwt beam="2">  1       21 0.65443090E-02 0.12500000E+03</pdfrwt>
<totfact> 0.72780309E+06</totfact>
</mgrwt>
</event>
<event>
 3      1 +1.7592000e+01 1.25000000e+02 7.54677100e-03 1.23506900e-01
       21 -1    0    0  502  501 +0.0000000000e+00 +0.0000000000e+00 +3.1764943239e+02 3.1764943239e+02 0.0000000000e+00 0.0000e+00 -1.0000e+00
       21 -1    0    0  501  502 -0.0000000000e+00 -0.0000000000e+00 -1.2297361814e+01 1.2297361814e+01 0.0000000000e+00 0.0000e+00 -1.0000e+00
       25  1    1    2    0    0 +0.0000000000e+00 +0.0000000000e+00 +3.0535207057e+02 3.2994679420e+02 1.2500000000e+02 0.0000e+00 0.0000e+00
<mgrwt>
<rscale>  0 0.12500000E+03</rscale>
<asrwt>0</asrwt>
<pdfrwt beam="1">  1       21 0.48869137E-01 0.12500000E+03</pdfrwt>
<pdfrwt beam="2">  1       21 0.18919021E-02 0.12500000E+03</pdfrwt>
<totfact> 0.53054407E+06</totfact>
</mgrwt>
</event>
<event>
 3      1 +1.7592000e+01 1.25000000e+02 7.54677100e-03 1.23506900e-01
       21 -1    0    0  502  501 +0.0000000000e+00 +0.0000000000e+00 +3.3306647702e+01 3.3306647702e+01 0.0000000000e+00 0.0000e+00 -1.0000e+00
       21 -1    0    0  501  502 -0.0000000000e+00 -0.0000000000e+00 -1.1728139184e+02 1.1728139184e+02 0.0000000000e+00 0.0000e+00 -1.0000e+00
       25  1    1    2    0    0 +0.0000000000e+00 +0.0000000000e+00 -8.3974744139e+01 1.5058803954e+02 1.2500000000e+02 0.0000e+00 0.0000e+00
<mgrwt>
<rscale>  0 0.12500000E+03</rscale>
<asrwt>0</asrwt>
<pdfrwt beam="1">  1       21 0.51240997E-02 0.12500000E+03</pdfrwt>
<pdfrwt beam="2">  1       21 0.18043291E-01 0.12500000E+03</pdfrwt>
<totfact> 0.70685411E+06</totfact>
</mgrwt>
</event>
<event>
 3      1 +1.7592000e+01 1.25000000e+02 7.54677100e-03 1.23506900e-01
       21 -1    0    0  502  501 +0.0000000000e+00 +0.0000000000e+00 +9.1144453627e+01 9.1144453627e+01 0.0000000000e+00 0.0000e+00 -1.0000e+00
       21 -1    0    0  501  502 -0.0000000000e+00 -0.0000000000e+00 -4.2857791611e+01 4.2857791611e+01 0.0000000000e+00 0.0000e+00 -1.0000e+00
       25  1    1    2    0    0 +0.0000000000e+00 +0.0000000000e+00 +4.8286662017e+01 1.3400224524e+02 1.2500000000e+02 0.0000e+00 0.0000e+00
<mgrwt>
<rscale>  0 0.12500000E+03</rscale>
<asrwt>0</asrwt>
<pdfrwt beam="1">  1       21 0.14022224E-01 0.12500000E+03</pdfrwt>
<pdfrwt beam="2">  1       21 0.65935064E-02 0.12500000E+03</pdfrwt>
<totfact> 0.72828855E+06</totfact>
</mgrwt>
</event>
<event>
 3      1 +1.7592000e+01 1.25000000e+02 7.54677100e-03 1.23506900e-01
       21 -1    0    0  502  501 +0.0000000000e+00 +0.0000000000e+00 +2.3236089285e+01 2.3236089285e+01 0.0000000000e+00 0.0000e+00 -1.0000e+00
       21 -1    0    0  501  502 -0.0000000000e+00 -0.0000000000e+00 -1.6811133544e+02 1.6811133544e+02 0.0000000000e+00 0.0000e+00 -1.0000e+00
       25  1    1    2    0    0 +0.0000000000e+00 +0.0000000000e+00 -1.4487524615e+02 1.9134742472e+02 1.2500000000e+02 0.0000e+00 0.0000e+00
<mgrwt>
<rscale>  0 0.12500000E+03</rscale>
<asrwt>0</asrwt>
<pdfrwt beam="1">  1       21 0.35747829E-02 0.12500000E+03</pdfrwt>
<pdfrwt beam="2">  1       21 0.25863283E-01 0.12500000E+03</pdfrwt>
<totfact> 0.65873023E+06</totfact>
</mgrwt>
</event>
<event>
 3      1 +1.7592000e+01 1.25000000e+02 7.54677100e-03 1.23506900e-01
       21 -1    0    0  502  501 +0.0000000000e+00 +0.0000000000e+00 +2.0262043259e+01 2.0262043259e+01 0.0000000000e+00 0.0000e+00 1.0000e+00
       21 -1    0    0  501  502 -0.0000000000e+00 -0.0000000000e+00 -1.9278657883e+02 1.9278657883e+02 0.0000000000e+00 0.0000e+00 1.0000e+00
       25  1    1    2    0    0 +0.0000000000e+00 +0.0000000000e+00 -1.7252453558e+02 2.1304862209e+02 1.2500000000e+02 0.0000e+00 0.0000e+00
<mgrwt>
<rscale>  0 0.12500000E+03</rscale>
<asrwt>0</asrwt>
<pdfrwt beam="1">  1       21 0.31172376E-02 0.12500000E+03</pdfrwt>
<pdfrwt beam="2">  1       21 0.29659472E-01 0.12500000E+03</pdfrwt>
<totfact> 0.63540207E+06</totfact>
</mgrwt>
</event>
<event>
 3      1 +1.7592000e+01 1.25000000e+02 7.54677100e-03 1.23506900e-01
       21 -1    0    0  502  501 +0.0000000000e+00 +0.0000000000e+00 +1.4503063207e+01 1.4503063207e+01 0.0000000000e+00 0.0000e+00 -1.0000e+00
       21 -1    0    0  501  502 -0.0000000000e+00 -0.0000000000e+00 -2.6933965220e+02 2.6933965220e+02 0.0000000000e+00 0.0000e+00 -1.0000e+00
       25  1    1    2    0    0 +0.0000000000e+00 +0.0000000000e+00 -2.5483658899e+02 2.8384271541e+02 1.2500000000e+02 0.0000e+00 0.0000e+00
<mgrwt>
<rscale>  0 0.12500000E+03</rscale>
<asrwt>0</asrwt>
<pdfrwt beam="1">  1       21 0.22312406E-02 0.12500000E+03</pdfrwt>
<pdfrwt beam="2">  1       21 0.41436867E-01 0.12500000E+03</pdfrwt>
<totfact> 0.56826219E+06</totfact>
</mgrwt>
</event>
<event>
 3      1 +1.7592000e+01 1.25000000e+02 7.54677100e-03 1.23506900e-01
       21 -1    0    0  502  501 +0.0000000000e+00 +0.0000000000e+00 +4.0337996142e+01 4.0337996142e+01 0.0000000000e+00 0.0000e+00 -1.0000e+00
       21 -1    0    0  501  502 -0.0000000000e+00 -0.0000000000e+00 -9.6837978422e+01 9.6837978422e+01 0.0000000000e+00 0.0000e+00 -1.0000e+00
       25  1    1    2    0    0 +0.0000000000e+00 +0.0000000000e+00 -5.6499982280e+01 1.3717597456e+02 1.2500000000e+02 0.0000e+00 0.0000e+00
<mgrwt>
<rscale>  0 0.12500000E+03</rscale>
<asrwt>0</asrwt>
<pdfrwt beam="1">  1       21 0.62058457E-02 0.12500000E+03</pdfrwt>
<pdfrwt beam="2">  1       21 0.14898150E-01 0.12500000E+03</pdfrwt>
<totfact> 0.72409621E+06</totfact>
</mgrwt>
</event>
<event>
 3      1 +1.7592000e+01 1.25000000e+02 7.54677100e-03 1.23506900e-01
       21 -1    0    0  502  501 +0.0000000000e+00 +0.0000000000e+00 +5.5823858519e+02 5.5823858519e+02 0.0000000000e+00 0.0000e+00 1.0000e+00
       21 -1    0    0  501  502 -0.0000000000e+00 -0.0000000000e+00 -6.9974561121e+00 6.9974561121e+00 0.0000000000e+00 0.0000e+00 1.0000e+00
       25  1    1    2    0    0 +0.0000000000e+00 +0.0000000000e+00 +5.5124112908e+02 5.6523604131e+02 1.2500000000e+02 0.0000e+00 0.0000e+00
<mgrwt>
<rscale>  0 0.12500000E+03</rscale>
<asrwt>0</asrwt>
<pdfrwt beam="1">  1       21 0.85882825E-01 0.12500000E+03</pdfrwt>
<pdfrwt beam="2">  1       21 0.10765321E-02 0.12500000E+03</pdfrwt>
<totfact> 0.38713523E+06</totfact>
</mgrwt>
</event>
<event>
 3      1 +1.7592000e+01 1.25000000e+02 7.54677100e-03 1.23506900e-01
       21 -1    0    0  502  501 +0.0000000000e+00 +0.0000000000e+00 +1.1262684105e+02 1.1262684105e+02 0.0000000000e+00 0.0000e+00 -1.0000e+00
       21 -1    0    0  501  502 -0.0000000000e+00 -0.0000000000e+00 -3.4683117840e+01 3.4683117840e+01 0.0000000000e+00 0.0000e+00 -1.0000e+00
       25  1    1    2    0    0 +0.0000000000e+00 +0.0000000000e+00 +7.7943723207e+01 1.4730995889e+02 1.2500000000e+02 0.0000e+00 0.0000e+00
<mgrwt>
<rscale>  0 0.12500000E+03</rscale>
<asrwt>0</asrwt>
<pdfrwt beam="1">  1       21 0.17327206E-01 0.12500000E+03</pdfrwt>
<pdfrwt beam="2">  1       21 0.53358643E-02 0.12500000E+03</pdfrwt>
<totfact> 0.71098777E+06</totfact>
</mgrwt>
</event>
<event>
 3      1 +1.7592000e+01 1.25000000e+02 7.54677100e-03 1.23506900e-01
       21 -1    0    0  502  501 +0.0000000000e+00 +0.0000000000e+00 +9.5058093471e+00 9.5058093471e+00 0.0000000000e+00 0.0000e+00 1.0000e+00
       21 -1    0    0  501  502 -0.0000000000e+00 -0.0000000000e+00 -4.1093292084e+02 4.1093292084e+02 0.0000000000e+00 0.0000e+00 1.0000e+00
       25  1    1    2    0    0 +0.0000000000e+00 +0.0000000000e+00 -4.0142711150e+02 4.2043873019e+02 1.2500000000e+02 0.0000e+00 0.0000e+00
<mgrwt>
<rscale>  0 0.12500000E+03</rscale>
<asrwt>0</asrwt>
<pdfrwt beam="1">  1       21 0.14624320E-02 0.12500000E+03</pdfrwt>
<pdfrwt beam="2">  1       21 0.63220459E-01 0.12500000E+03</pdfrwt>
<totfact> 0.46714572E+06</totfact>
</mgrwt>
</event>
<event>
 3      1 +1.7592000e+01 1.25000000e+02 7.54677100e-03 1.23506900e-01
       21 -1    0    0  502  501 +0.0000000000e+00 +0.0000000000e+00 +7.9645089759e+01 7.9645089759e+01 0.0000000000e+00 0.0000e+00 1.0000e+00
       21 -1    0    0  501  502 -0.0000000000e+00 -0.0000000000e+00 -4.9045710311e+01 4.9045710311e+01 0.0000000000e+00 0.0000e+00 1.0000e+00
       25  1    1    2    0    0 +0.0000000000e+00 +0.0000000000e+00 +3.0599379449e+01 1.2869080007e+02 1.2500000000e+02 0.0000e+00 0.0000e+00
<mgrwt>
<rscale>  0 0.12500000E+03</rscale>
<asrwt>0</asrwt>
<pdfrwt beam="1">  1       21 0.12253091E-01 0.12500000E+03</pdfrwt>
<pdfrwt beam="2">  1       21 0.75454939E-02 0.12500000E+03</pdfrwt>
<totfact> 0.73540441E+06</totfact>
</mgrwt>
</event>
<event>
 3      1 +1.7592000e+01 1.25000000e+02 7.54677100e-03 1.23506900e-01
       21 -1    0    0  502  501 +0.0000000000e+00 +0.0000000000e+00 +9.7437129737e+01 9.7437129737e+01 0.0000000000e+00 0.0000e+00 1.0000e+00
       21 -1    0    0  501  502 -0.0000000000e+00 -0.0000000000e+00 -4.0089953497e+01 4.0089953497e+01 0.0000000000e+00 0.0000e+00 1.0000e+00
       25  1    1    2    0    0 +0.0000000000e+00 +0.0000000000e+00 +5.7347176240e+01 1.3752708323e+02 1.2500000000e+02 0.0000e+00 0.0000e+00
<mgrwt>
<rscale>  0 0.12500000E+03</rscale>
<asrwt>0</asrwt>
<pdfrwt beam="1">  1       21 0.14990328E-01 0.12500000E+03</pdfrwt>
<pdfrwt beam="2">  1       21 0.61676852E-02 0.12500000E+03</pdfrwt>
<totfact> 0.72363566E+06</totfact>
</mgrwt>
</event>
<event>
 3      1 +1.7592000e+01 1.25000000e+02 7.54677100e-03 1.23506900e-01
       21 -1    0    0  502  501 +0.0000000000e+00 +0.0000000000e+00 +9.2489113855e+00 9.2489113855e+00 0.0000000000e+00 0.0000e+00 -1.0000e+00
       21 -1    0    0  501  502 -0.0000000000e+00 -0.0000000000e+00 -4.2234700250e+02 4.2234700250e+02 0.0000000000e+00 0.0000e+00 -1.0000e+00
       25  1    1    2    0    0 +0.0000000000e+00 +0.0000000000e+00 -4.1309809111e+02 4.3159591388e+02 1.2500000000e+02 0.0000e+00 0.0000e+00
<mgrwt>
<rscale>  0 0.12500000E+03</rscale>
<asrwt>0</asrwt>
<pdfrwt beam="1">  1       21 0.14229096E-02 0.12500000E+03</pdfrwt>
<pdfrwt beam="2">  1       21 0.64976457E-01 0.12500000E+03</pdfrwt>
<totfact> 0.46013887E+06</totfact>
</mgrwt>
</event>
<event>
 3      1 +1.7592000e+01 1.25000000e+02 7.54677100e-03 1.23506900e-01
       21 -1    0    0  502  501 +0.0000000000e+00 +0.0000000000e+00 +3.4323175214e+00 3.4323175214e+00 0.0000000000e+00 0.0000e+00 -1.0000e+00
       21 -1    0    0  501  502 -0.0000000000e+00 -0.0000000000e+00 -1.1380794392e+03 1.1380794392e+03 0.0000000000e+00 0.0000e+00 -1.0000e+00
       25  1    1    2    0    0 +0.0000000000e+00 +0.0000000000e+00 -1.1346471217e+03 1.1415117567e+03 1.2500000000e+02 0.0000e+00 0.0000e+00
<mgrwt>
<rscale>  0 0.12500000E+03</rscale>
<asrwt>0</asrwt>
<pdfrwt beam="1">  1       21 0.52804840E-03 0.12500000E+03</pdfrwt>
<pdfrwt beam="2">  1       21 0.17508929E+00 0.12500000E+03</pdfrwt>
<totfact> 0.20349263E+06</totfact>
</mgrwt>
</event>
<event>
 3      1 +1.7592000e+01 1.25000000e+02 7.54677100e-03 1.23506900e-01
       21 -1    0    0  502  501 +0.0000000000e+00 +0.0000000000e+00 +2.6849016930e+00 2.6849016930e+00 0.0000000000e+00 0.0000e+00 1.0000e+00
       21 -1    0    0  501  502 -0.0000000000e+00 -0.0000000000e+00 -1.4548949819e+03 1.4548949819e+03 0.0000000000e+00 0.0000e+00 1.0000e+00
       25  1    1    2    0    0 +0.0000000000e+00 +0.0000000000e+00 -1.4522100802e+03 1.4575798836e+03 1.2500000000e+02 0.0000e+00 0.0000e+00
<mgrwt>
<rscale>  0 0.12500000E+03</rscale>
<asrwt>0</asrwt>
<pdfrwt beam="1">  1       21 0.41306157E-03 0.12500000E+03</pdfrwt>
<pdfrwt beam="2">  1       21 0.22383012E+00 0.12500000E+03</pdfrwt>
<totfact> 0.14633595E+06</totfact>
</mgrwt>
</event>
<event>
 3      1 +1.7592000e+01 1.25000000e+02 7.54677100e-03 1.23506900e-01
       21 -1    0    0  502  501 +0.0000000000e+00 +0.0000000000e+00 +5.3423947338e+02 5.3423947338e+02 0.0000000000e+00 0.0000e+00 -1.0000e+00
       21 -1    0    0  501  502 -0.0000000000e+00 -0.0000000000e+00 -7.3117959167e+00 7.3117959167e+00 0.0000000000e+00 0.0000e+00 -1.0000e+00
       25  1    1    2    0    0 +0.0000000000e+00 +0.0000000000e+00 +5.2692767746e+02 5.4155126930e+02 1.2500000000e+02 0.0000e+00 0.0000e+00
<mgrwt>
<rscale>  0 0.12500000E+03</rscale>
<asrwt>0</asrwt>
<pdfrwt beam="1">  1       21 0.82190658E-01 0.12500000E+03</pdfrwt>
<pdfrwt beam="2">  1       21 0.11248921E-02 0.12500000E+03</pdfrwt>
<totfact> 0.39876740E+06</totfact>
</mgrwt>
</event>
<event>
 3      1 +1.7592000e+01 1.25000000e+02 7.54677100e-03 1.23506900e-01
       21 -1    0    0  502  501 +0.0000000000e+00 +0.0000000000e+00 +2.1743331022e+01 2.1743331022e+01 0.0000000000e+00 0.0000e+00 1.0000e+00
       21 -1    0    0  501  502 -0.0000000000e+00 -0.0000000000e+00 -1.7965278623e+02 1.7965278623e+02 0.0000000000e+00 0.0000e+00 1.0000e+00
       25  1    1    2    0    0 +0.0000000000e+00 +0.0000000000e+00 -1.5790945520e+02 2.0139611725e+02 1.2500000000e+02 0.0000e+00 0.0000e+00
<mgrwt>
<rscale>  0 0.12500000E+03</rscale>
<asrwt>0</asrwt>
<pdfrwt beam="1">  1       21 0.33451279E-02 0.12500000E+03</pdfrwt>
<pdfrwt beam="2">  1       21 0.27638890E-01 0.12500000E+03</pdfrwt>
<totfact> 0.64776287E+06</totfact>
</mgrwt>
</event>
<event>
 3      1 +1.7592000e+01 1.25000000e+02 7.54677100e-03 1.23506900e-01
       21 -1    0    0  502  501 +0.0000000000e+00 +0.0000000000e+00 +2.9979689862e+02 2.9979689862e+02 0.0000000000e+00 0.0000e+00 -1.0000e+00
       21 -1    0    0  501  502 -0.0000000000e+00 -0.0000000000e+00 -1.3029654470e+01 1.3029654470e+01 0.0000000000e+00 0.0000e+00 -1.0000e+00
       25  1    1    2    0    0 +0.0000000000e+00 +0.0000000000e+00 +2.8676724415e+02 3.1282655309e+02 1.2500000000e+02 0.0000e+00 0.0000e+00
<mgrwt>
<rscale>  0 0.12500000E+03</rscale>
<asrwt>0</asrwt>
<pdfrwt beam="1">  1       21 0.46122595E-01 0.12500000E+03</pdfrwt>
<pdfrwt beam="2">  1       21 0.20045625E-02 0.12500000E+03</pdfrwt>
<totfact> 0.54406745E+06</totfact>
</mgrwt>
</event>
<event>
 3      1 +1.7592000e+01 1.25000000e+02 7.54677100e-03 1.23506900e-01
       21 -1    0    0  502  501 +0.0000000000e+00 +0.0000000000e+00 +1.5935554770e+02 1.5935554770e+02 0.0000000000e+00 0.0000e+00 -1.0000e+00
       21 -1    0    0  501  502 -0.0000000000e+00 -0.0000000000e+00 -2.4512795797e+01 2.4512795797e+01 0.0000000000e+00 0.0000e+00 -1.0000e+00
       25  1    1    2    0    0 +0.0000000000e+00 +0.0000000000e+00 +1.3484275191e+02 1.8386834350e+02 1.2500000000e+02 0.0000e+00 0.0000e+00
<mgrwt>
<rscale>  0 0.12500000E+03</rscale>
<asrwt>0</asrwt>
<pdfrwt beam="1">  1       21 0.24516237E-01 0.12500000E+03</pdfrwt>
<pdfrwt beam="2">  1       21 0.37711994E-02 0.12500000E+03</pdfrwt>
<totfact> 0.66710520E+06</totfact>
</mgrwt>
</event>
<event>
 3      1 +1.7592000e+01 1.25000000e+02 7.54677100e-03 1.23506900e-01
       21 -1    0    0  502  501 +0.0000000000e+00 +0.0000000000e+00 +5.8322667533e+00 5.8322667533e+00 0.0000000000e+00 0.0000e+00 -1.0000e+00
       21 -1    0    0  501  502 -0.0000000000e+00 -0.0000000000e+00 -6.6976531857e+02 6.6976531857e+02 0.0000000000e+00 0.0000e+00 -1.0000e+00
       25  1    1    2    0    0 +0.0000000000e+00 +0.0000000000e+00 -6.6393305182e+02 6.7559758533e+02 1.2500000000e+02 0.0000e+00 0.0000e+00
<mgrwt>
<rscale>  0 0.12500000E+03</rscale>
<asrwt>0</asrwt>
<pdfrwt beam="1">  1       21 0.89727149E-03 0.12500000E+03</pdfrwt>
<pdfrwt beam="2">  1       21 0.10304086E+00 0.12500000E+03</pdfrwt>
<totfact> 0.33872325E+06</totfact>
</mgrwt>
</event>
<event>
 3      1 +1.7592000e+01 1.25000000e+02 7.54677100e-03 1.23506900e-01
       21 -1    0    0  502  501 +0.0000000000e+00 +0.0000000000e+00 +4.8688763461e+02 4.8688763461e+02 0.0000000000e+00 0.0000e+00 1.0000e+00
       21 -1    0    0  501  502 -0.0000000000e+00 -0.0000000000e+00 -8.0228983493e+00 8.0228983493e+00 0.0000000000e+00 0.0000e+00 1.0000e+00
       25  1    1    2    0    0 +0.0000000000e+00 +0.0000000000e+00 +4.7886473626e+02 4.9491053296e+02 1.2500000000e+02 0.0000e+00 0.0000e+00
<mgrwt>
<rscale>  0 0.12500000E+03</rscale>
<asrwt>0</asrwt>
<pdfrwt beam="1">  1       21 0.74905767E-01 0.12500000E+03</pdfrwt>
<pdfrwt beam="2">  1       21 0.12342924E-02 0.12500000E+03</pdfrwt>
<totfact> 0.42321443E+06</totfact>
</mgrwt>
</event>
<event>
 3      1 +1.7592000e+01 1.25000000e+02 7.54677100e-03 1.23506900e-01
       21 -1    0    0  502  501 +0.0000000000e+00 +0.0000000000e+00 +2.2429103457e+02 2.2429103457e+02 0.0000000000e+00 0.0000e+00 -1.0000e+00
       21 -1    0    0  501  502 -0.0000000000e+00 -0.0000000000e+00 -1.7415988149e+01 1.7415988149e+01 0.0000000000e+00 0.0000e+00 -1.0000e+00
       25  1    1    2    0    0 +0.0000000000e+00 +0.0000000000e+00 +2.0687504642e+02 2.4170702272e+02 1.2500000000e+02 0.0000e+00 0.0000e+00
<mgrwt>
<rscale>  0 0.12500000E+03</rscale>
<asrwt>0</asrwt>
<pdfrwt beam="1">  1       21 0.34506311E-01 0.12500000E+03</pdfrwt>
<pdfrwt beam="2">  1       21 0.26793830E-02 0.12500000E+03</pdfrwt>
<totfact> 0.60667869E+06</totfact>
</mgrwt>
</event>
<event>
 3      1 +1.7592000e+01 1.25000000e+02 7.54677100e-03 1.23506900e-01
       21 -1    0    0  502  501 +0.0000000000e+00 +0.0000000000e+00 +2.1283173207e+03 2.1283173207e+03 0.0000000000e+00 0.0000e+00 -1.0000e+00
       21 -1    0    0  501  502 -0.0000000000e+00 -0.0000000000e+00 -1.8353701124e+00 1.8353701124e+00 0.0000000000e+00 0.0000e+00 -1.0000e+00
       25  1    1    2    0    0 +0.0000000000e+00 +0.0000000000e+00 +2.1264819506e+03 2.1301526908e+03 1.2500000000e+02 0.0000e+00 0.0000e+00
<mgrwt>
<rscale>  0 0.12500000E+03</rscale>
<asrwt>0</asrwt>
<pdfrwt beam="1">  1       21 0.32743146E+00 0.12500000E+03</pdfrwt>
<pdfrwt beam="2">  1       21 0.28236633E-03 0.12500000E+03</pdfrwt>
<totfact> 0.67473182E+05</totfact>
</mgrwt>
</event>
<event>
 3      1 +1.7592000e+01 1.25000000e+02 7.54677100e-03 1.23506900e-01
       21 -1    0    0  502  501 +0.0000000000e+00 +0.0000000000e+00 +2.5257741235e+01 2.5257741235e+01 0.0000000000e+00 0.0000e+00 -1.0000e+00
       21 -1    0    0  501  502 -0.0000000000e+00 -0.0000000000e+00 -1.5465555544e+02 1.5465555544e+02 0.0000000000e+00 0.0000e+00 -1.0000e+00
       25  1    1    2    0    0 +0.0000000000e+00 +0.0000000000e+00 -1.2939781421e+02 1.7991329668e+02 1.2500000000e+02 0.0000e+00 0.0000e+00
<mgrwt>
<rscale>  0 0.12500000E+03</rscale>
<asrwt>0</asrwt>
<pdfrwt beam="1">  1       21 0.38858064E-02 0.12500000E+03</pdfrwt>
<pdfrwt beam="2">  1       21 0.23793162E-01 0.12500000E+03</pdfrwt>
<totfact> 0.67161484E+06</totfact>
</mgrwt>
</event>
<event>
 3      1 +1.7592000e+01 1.25000000e+02 7.54677100e-03 1.23506900e-01
       21 -1    0    0  502  501 +0.0000000000e+00 +0.0000000000e+00 +2.7715740828e+01 2.7715740828e+01 0.0000000000e+00 0.0000e+00 -1.0000e+00
       21 -1    0    0  501  502 -0.0000000000e+00 -0.0000000000e+00 -1.4093976503e+02 1.4093976503e+02 0.0000000000e+00 0.0000e+00 -1.0000e+00
       25  1    1    2    0    0 +0.0000000000e+00 +0.0000000000e+00 -1.1322402421e+02 1.6865550586e+02 1.2500000000e+02 0.0000e+00 0.0000e+00
<mgrwt>
<rscale>  0 0.12500000E+03</rscale>
<asrwt>0</asrwt>
<pdfrwt beam="1">  1       21 0.42639601E-02 0.12500000E+03</pdfrwt>
<pdfrwt beam="2">  1       21 0.21683041E-01 0.12500000E+03</pdfrwt>
<totfact> 0.68477048E+06</totfact>
</mgrwt>
</event>
<event>
 3      1 +1.7592000e+01 1.25000000e+02 7.54677100e-03 1.23506900e-01
       21 -1    0    0  502  501 +0.0000000000e+00 +0.0000000000e+00 +9.2946669673e+01 9.2946669673e+01 0.0000000000e+00 0.0000e+00 -1.0000e+00
       21 -1    0    0  501  502 -0.0000000000e+00 -0.0000000000e+00 -4.2026788197e+01 4.2026788197e+01 0.0000000000e+00 0.0000e+00 -1.0000e+00
       25  1    1    2    0    0 +0.0000000000e+00 +0.0000000000e+00 +5.0919881476e+01 1.3497345787e+02 1.2500000000e+02 0.0000e+00 0.0000e+00
<mgrwt>
<rscale>  0 0.12500000E+03</rscale>
<asrwt>0</asrwt>
<pdfrwt beam="1">  1       21 0.14299488E-01 0.12500000E+03</pdfrwt>
<pdfrwt beam="2">  1       21 0.64656597E-02 0.12500000E+03</pdfrwt>
<totfact> 0.72699986E+06</totfact>
</mgrwt>
</event>
<event>
 3      1 +1.7592000e+01 1.25000000e+02 7.54677100e-03 1.23506900e-01
       21 -1    0    0  502  501 +0.0000000000e+00 +0.0000000000e+00 +4.7388857968e+01 4.7388857968e+01 0.0000000000e+00 0.0000e+00 -1.0000e+00
       21 -1    0    0  501  502 -0.0000000000e+00 -0.0000000000e+00 -8.2429713808e+01 8.2429713808e+01 0.0000000000e+00 0.0000e+00 -1.0000e+00
       25  1    1    2    0    0 +0.0000000000e+00 +0.0000000000e+00 -3.5040855839e+01 1.2981857178e+02 1.2500000000e+02 0.0000e+00 0.0000e+00
<mgrwt>
<rscale>  0 0.12500000E+03</rscale>
<asrwt>0</asrwt>
<pdfrwt beam="1">  1       21 0.72905936E-02 0.12500000E+03</pdfrwt>
<pdfrwt beam="2">  1       21 0.12681494E-01 0.12500000E+03</pdfrwt>
<totfact> 0.73389173E+06</totfact>
</mgrwt>
</event>
<event>
 3      1 +1.7592000e+01 1.25000000e+02 7.54677100e-03 1.23506900e-01
       21 -1    0    0  502  501 +0.0000000000e+00 +0.0000000000e+00 +5.5945620128e+01 5.5945620128e+01 0.0000000000e+00 0.0000e+00 -1.0000e+00
       21 -1    0    0  501  502 -0.0000000000e+00 -0.0000000000e+00 -6.9822266535e+01 6.9822266535e+01 0.0000000000e+00 0.0000e+00 -1.0000e+00
       25  1    1    2    0    0 +0.0000000000e+00 +0.0000000000e+00 -1.3876646407e+01 1.2576788666e+02 1.2500000000e+02 0.0000e+00 0.0000e+00
<mgrwt>
<rscale>  0 0.12500000E+03</rscale>
<asrwt>0</asrwt>
<pdfrwt beam="1">  1       21 0.86070185E-02 0.12500000E+03</pdfrwt>
<pdfrwt beam="2">  1       21 0.10741887E-01 0.12500000E+03</pdfrwt>
<totfact> 0.73938121E+06</totfact>
</mgrwt>
</event>
<event>
 3      1 +1.7592000e+01 1.25000000e+02 7.54677100e-03 1.23506900e-01
       21 -1    0    0  502  501 +0.0000000000e+00 +0.0000000000e+00 +8.4632564537e+01 8.4632564537e+01 0.0000000000e+00 0.0000e+00 1.0000e+00
       21 -1    0    0  501  502 -0.0000000000e+00 -0.0000000000e+00 -4.6155401545e+01 4.6155401545e+01 0.0000000000e+00 0.0000e+00 1.0000e+00
       25  1    1    2    0    0 +0.0000000000e+00 +0.0000000000e+00 +3.8477162992e+01 1.3078796608e+02 1.2500000000e+02 0.0000e+00 0.0000e+00
<mgrwt>
<rscale>  0 0.12500000E+03</rscale>
<asrwt>0</asrwt>
<pdfrwt beam="1">  1       21 0.13020395E-01 0.12500000E+03</pdfrwt>
<pdfrwt beam="2">  1       21 0.71008310E-02 0.12500000E+03</pdfrwt>
<totfact> 0.73259259E+06</totfact>
</mgrwt>
</event>
<event>
 3      1 +1.7592000e+01 1.25000000e+02 7.54677100e-03 1.23506900e-01
       21 -1    0    0  502  501 +0.0000000000e+00 +0.0000000000e+00 +4.4510655036e+01 4.4510655036e+01 0.0000000000e+00 0.0000e+00 -1.0000e+00
       21 -1    0    0  501  502 -0.0000000000e+00 -0.0000000000e+00 -8.7759885736e+01 8.7759885736e+01 0.0000000000e+00 0.0000e+00 -1.0000e+00
       25  1    1    2    0    0 +0.0000000000e+00 +0.0000000000e+00 -4.3249230700e+01 1.3227054077e+02 1.2500000000e+02 0.0000e+00 0.0000e+00
<mgrwt>
<rscale>  0 0.12500000E+03</rscale>
<asrwt>0</asrwt>
<pdfrwt beam="1">  1       21 0.68477930E-02 0.12500000E+03</pdfrwt>
<pdfrwt beam="2">  1       21 0.13501521E-01 0.12500000E+03</pdfrwt>
<totfact> 0.73059963E+06</totfact>
</mgrwt>
</event>
<event>
 3      1 +1.7592000e+01 1.25000000e+02 7.54677100e-03 1.23506900e-01
       21 -1    0    0  502  501 +0.0000000000e+00 +0.0000000000e+00 +5.6876643271e+01 5.6876643271e+01 0.0000000000e+00 0.0000e+00 1.0000e+00
       21 -1    0    0  501  502 -0.0000000000e+00 -0.0000000000e+00 -6.8679334351e+01 6.8679334351e+01 0.0000000000e+00 0.0000e+00 1.0000e+00
       25  1    1    2    0    0 +0.0000000000e+00 +0.0000000000e+00 -1.1802691079e+01 1.2555597762e+02 1.2500000000e+02 0.0000e+00 0.0000e+00
<mgrwt>
<rscale>  0 0.12500000E+03</rscale>
<asrwt>0</asrwt>
<pdfrwt beam="1">  1       21 0.87502528E-02 0.12500000E+03</pdfrwt>
<pdfrwt beam="2">  1       21 0.10566051E-01 0.12500000E+03</pdfrwt>
<totfact> 0.73967579E+06</totfact>
</mgrwt>
</event>
<event>
 3      1 +1.7592000e+01 1.25000000e+02 7.54677100e-03 1.23506900e-01
       21 -1    0    0  502  501 +0.0000000000e+00 +0.0000000000e+00 +1.3868466110e+01 1.3868466110e+01 0.0000000000e+00 0.0000e+00 -1.0000e+00
       21 -1    0    0  501  502 -0.0000000000e+00 -0.0000000000e+00 -2.8166417028e+02 2.8166417028e+02 0.0000000000e+00 0.0000e+00 -1.0000e+00
       25  1    1    2    0    0 +0.0000000000e+00 +0.0000000000e+00 -2.6779570417e+02 2.9553263639e+02 1.2500000000e+02 0.0000e+00 0.0000e+00
<mgrwt>
<rscale>  0 0.12500000E+03</rscale>
<asrwt>0</asrwt>
<pdfrwt beam="1">  1       21 0.21336100E-02 0.12500000E+03</pdfrwt>
<pdfrwt beam="2">  1       21 0.43332953E-01 0.12500000E+03</pdfrwt>
<totfact> 0.55829482E+06</totfact>
</mgrwt>
</event>
<event>
 3      1 +1.7592000e+01 1.25000000e+02 7.54677100e-03 1.23506900e-01
       21 -1    0    0  502  501 +0.0000000000e+00 +0.0000000000e+00 +3.8990219438e+01 3.8990219438e+01 0.0000000000e+00 0.0000e+00 1.0000e+00
       21 -1    0    0  501  502 -0.0000000000e+00 -0.0000000000e+00 -1.0018538127e+02 1.0018538127e+02 0.0000000000e+00 0.0000e+00 1.0000e+00
       25  1    1    2    0    0 +0.0000000000e+00 +0.0000000000e+00 -6.1195161828e+01 1.3917560070e+02 1.2500000000e+02 0.0000e+00 0.0000e+00
<mgrwt>
<rscale>  0 0.12500000E+03</rscale>
<asrwt>0</asrwt>
<pdfrwt beam="1">  1       21 0.59984953E-02 0.12500000E+03</pdfrwt>
<pdfrwt beam="2">  1       21 0.15413135E-01 0.12500000E+03</pdfrwt>
<totfact> 0.72147115E+06</totfact>
</mgrwt>
</event>
<event>
 3      1 +1.7592000e+01 1.25000000e+02 7.54677100e-03 1.23506900e-01
       21 -1    0    0  502  501 +0.0000000000e+00 +0.0000000000e+00 +1.5823520027e+02 1.5823520027e+02 0.0000000000e+00 0.0000e+00 1.0000e+00
       21 -1    0    0  501  502 -0.0000000000e+00 -0.0000000000e+00 -2.4686352931e+01 2.4686352931e+01 0.0000000000e+00 0.0000e+00 1.0000e+00
       25  1    1    2    0    0 +0.0000000000e+00 +0.0000000000e+00 +1.3354884734e+02 1.8292155320e+02 1.2500000000e+02 0.0000e+00 0.0000e+00
<mgrwt>
<rscale>  0 0.12500000E+03</rscale>
<asrwt>0</asrwt>
<pdfrwt beam="1">  1       21 0.24343876E-01 0.12500000E+03</pdfrwt>
<pdfrwt beam="2">  1       21 0.37979005E-02 0.12500000E+03</pdfrwt>
<totfact> 0.66817956E+06</totfact>
</mgrwt>
</event>
<event>
 3      1 +1.7592000e+01 1.25000000e+02 7.54677100e-03 1.23506900e-01
       21 -1    0    0  502  501 +0.0000000000e+00 +0.0000000000e+00 +2.1569125646e+02 2.1569125646e+02 0.0000000000e+00 0.0000e+00 1.0000e+00
       21 -1    0    0  501  502 -0.0000000000e+00 -0.0000000000e+00 -1.8110377139e+01 1.8110377139e+01 0.0000000000e+00 0.0000e+00 1.0000e+00
       25  1    1    2    0    0 +0.0000000000e+00 +0.0000000000e+00 +1.9758087932e+02 2.3380163359e+02 1.2500000000e+02 0.0000e+00 0.0000e+00
<mgrwt>
<rscale>  0 0.12500000E+03</rscale>
<asrwt>0</asrwt>
<pdfrwt beam="1">  1       21 0.33183268E-01 0.12500000E+03</pdfrwt>
<pdfrwt beam="2">  1       21 0.27862120E-02 0.12500000E+03</pdfrwt>
<totfact> 0.61437674E+06</totfact>
</mgrwt>
</event>
<event>
 3      1 +1.7592000e+01 1.25000000e+02 7.54677100e-03 1.23506900e-01
       21 -1    0    0  502  501 +0.0000000000e+00 +0.0000000000e+00 +3.4654941222e+01 3.4654941222e+01 0.0000000000e+00 0.0000e+00 -1.0000e+00
       21 -1    0    0  501  502 -0.0000000000e+00 -0.0000000000e+00 -1.1271841366e+02 1.1271841366e+02 0.0000000000e+00 0.0000e+00 -1.0000e+00
       25  1    1    2    0    0 +0.0000000000e+00 +0.0000000000e+00 -7.8063472439e+01 1.4737335488e+02 1.2500000000e+02 0.0000e+00 0.0000e+00
<mgrwt>
<rscale>  0 0.12500000E+03</rscale>
<asrwt>0</asrwt>
<pdfrwt beam="1">  1       21 0.53315294E-02 0.12500000E+03</pdfrwt>
<pdfrwt beam="2">  1       21 0.17341294E-01 0.12500000E+03</pdfrwt>
<totfact> 0.71090736E+06</totfact>
</mgrwt>
</event>
<event>
 3      1 +1.7592000e+01 1.25000000e+02 7.54677100e-03 1.23506900e-01
       21 -1    0    0  502  501 +0.0000000000e+00 +0.0000000000e+00 +2.0869422403e+01 2.0869422403e+01 0.0000000000e+00 0.0000e+00 1.0000e+00
       21 -1    0    0  501  502 -0.0000000000e+00 -0.0000000000e+00 -1.8717576004e+02 1.8717576004e+02 0.0000000000e+00 0.0000e+00 1.0000e+00
       25  1    1    2    0    0 +0.0000000000e+00 +0.0000000000e+00 -1.6630633764e+02 2.0804518245e+02 1.2500000000e+02 0.0000e+00 0.0000e+00
<mgrwt>
<rscale>  0 0.12500000E+03</rscale>
<asrwt>0</asrwt>
<pdfrwt beam="1">  1       21 0.32106804E-02 0.12500000E+03</pdfrwt>
<pdfrwt beam="2">  1       21 0.28796270E-01 0.12500000E+03</pdfrwt>
<totfact> 0.64065794E+06</totfact>
</mgrwt>
</event>
<event>
 3      1 +1.7592000e+01 1.25000000e+02 7.54677100e-03 1.23506900e-01
       21 -1    0    0  502  501 +0.0000000000e+00 +0.0000000000e+00 +1.8423356078e+02 1.8423356078e+02 0.0000000000e+00 0.0000e+00 -1.0000e+00
       21 -1    0    0  501  502 -0.0000000000e+00 -0.0000000000e+00 -2.1202705867e+01 2.1202705867e+01 0.0000000000e+00 0.0000e+00 -1.0000e+00
       25  1    1    2    0    0 +0.0000000000e+00 +0.0000000000e+00 +1.6303085491e+02 2.0543626665e+02 1.2500000000e+02 0.0000e+00 0.0000e+00
<mgrwt>
<rscale>  0 0.12500000E+03</rscale>
<asrwt>0</asrwt>
<pdfrwt beam="1">  1       21 0.28343624E-01 0.12500000E+03</pdfrwt>
<pdfrwt beam="2">  1       21 0.32619549E-02 0.12500000E+03</pdfrwt>
<totfact> 0.64342915E+06</totfact>
</mgrwt>
</event>
<event>
 3      1 +1.7592000e+01 1.25000000e+02 7.54677100e-03 1.23506900e-01
       21 -1    0    0  502  501 +0.0000000000e+00 +0.0000000000e+00 +6.6457259726e+00 6.6457259726e+00 0.0000000000e+00 0.0000e+00 -1.0000e+00
       21 -1    0    0  501  502 -0.0000000000e+00 -0.0000000000e+00 -5.8778379008e+02 5.8778379008e+02 0.0000000000e+00 0.0000e+00 -1.0000e+00
       25  1    1    2    0    0 +0.0000000000e+00 +0.0000000000e+00 -5.8113806410e+02 5.9442951605e+02 1.2500000000e+02 0.0000e+00 0.0000e+00
<mgrwt>
<rscale>  0 0.12500000E+03</rscale>
<asrwt>0</asrwt>
<pdfrwt beam="1">  1       21 0.10224196E-02 0.12500000E+03</pdfrwt>
<pdfrwt beam="2">  1       21 0.90428254E-01 0.12500000E+03</pdfrwt>
<totfact> 0.37345773E+06</totfact>
</mgrwt>
</event>
<event>
 3      1 +1.7592000e+01 1.25000000e+02 7.54677100e-03 1.23506900e-01
       21 -1    0    0  502  501 +0.0000000000e+00 +0.0000000000e+00 +6.6002744291e+00 6.6002744291e+00 0.0000000000e+00 0.0000e+00 1.0000e+00
       21 -1    0    0  501  502 -0.0000000000e+00 -0.0000000000e+00 -5.9183145216e+02 5.9183145216e+02 0.0000000000e+00 0.0000e+00 1.0000e+00
       25  1    1    2    0    0 +0.0000000000e+00 +0.0000000000e+00 -5.8523117773e+02 5.9843172659e+02 1.2500000000e+02 0.0000e+00 0.0000e+00
<mgrwt>
<rscale>  0 0.12500000E+03</rscale>
<asrwt>0</asrwt>
<pdfrwt beam="1">  1       21 0.10154265E-02 0.12500000E+03</pdfrwt>
<pdfrwt beam="2">  1       21 0.91051018E-01 0.12500000E+03</pdfrwt>
<totfact> 0.37163643E+06</totfact>
</mgrwt>
</event>
<event>
 3      1 +1.7592000e+01 1.25000000e+02 7.54677100e-03 1.23506900e-01
       21 -1    0    0  502  501 +0.0000000000e+00 +0.0000000000e+00 +4.5369684182e+01 4.5369684182e+01 0.0000000000e+00 0.0000e+00 1.0000e+00
       21 -1    0    0  501  502 -0.0000000000e+00 -0.0000000000e+00 -8.6098240938e+01 8.6098240938e+01 0.0000000000e+00 0.0000e+00 1.0000e+00
       25  1    1    2    0    0 +0.0000000000e+00 +0.0000000000e+00 -4.0728556756e+01 1.3146792512e+02 1.2500000000e+02 0.0000e+00 0.0000e+00
<mgrwt>
<rscale>  0 0.12500000E+03</rscale>
<asrwt>0</asrwt>
<pdfrwt beam="1">  1       21 0.69799515E-02 0.12500000E+03</pdfrwt>
<pdfrwt beam="2">  1       21 0.13245883E-01 0.12500000E+03</pdfrwt>
<totfact> 0.73167684E+06</totfact>
</mgrwt>
</event>
<event>
 3      1 +1.7592000e+01 1.25000000e+02 7.54677100e-03 1.23506900e-01
       21 -1    0    0  502  501 +0.0000000000e+00 +0.0000000000e+00 +5.9959729172e+02 5.9959729172e+02 0.0000000000e+00 0.0000e+00 1.0000e+00
       21 -1    0    0  501  502 -0.0000000000e+00 -0.0000000000e+00 -6.5147892660e+00 6.5147892660e+00 0.0000000000e+00 0.0000e+00 1.0000e+00
       25  1    1    2    0    0 +0.0000000000e+00 +0.0000000000e+00 +5.9308250245e+02 6.0611208099e+02 1.2500000000e+02 0.0000e+00 0.0000e+00
<mgrwt>
<rscale>  0 0.12500000E+03</rscale>
<asrwt>0</asrwt>
<pdfrwt beam="1">  1       21 0.92245693E-01 0.12500000E+03</pdfrwt>
<pdfrwt beam="2">  1       21 0.10022757E-02 0.12500000E+03</pdfrwt>
<totfact> 0.36817683E+06</totfact>
</mgrwt>
</event>
<event>
 3      1 +1.7592000e+01 1.25000000e+02 7.54677100e-03 1.23506900e-01
       21 -1    0    0  502  501 +0.0000000000e+00 +0.0000000000e+00 +2.4628844831e+01 2.4628844831e+01 0.0000000000e+00 0.0000e+00 1.0000e+00
       21 -1    0    0  501  502 -0.0000000000e+00 -0.0000000000e+00 -1.5860467784e+02 1.5860467784e+02 0.0000000000e+00 0.0000e+00 1.0000e+00
       25  1    1    2    0    0 +0.0000000000e+00 +0.0000000000e+00 -1.3397583301e+02 1.8323352267e+02 1.2500000000e+02 0.0000e+00 0.0000e+00
<mgrwt>
<rscale>  0 0.12500000E+03</rscale>
<asrwt>0</asrwt>
<pdfrwt beam="1">  1       21 0.37890530E-02 0.12500000E+03</pdfrwt>
<pdfrwt beam="2">  1       21 0.24400720E-01 0.12500000E+03</pdfrwt>
<totfact> 0.66782519E+06</totfact>
</mgrwt>
</event>
<event>
 3      1 +1.7592000e+01 1.25000000e+02 7.54677100e-03 1.23506900e-01
       21 -1    0    0  502  501 +0.0000000000e+00 +0.0000000000e+00 +1.6928334165e+02 1.6928334165e+02 0.0000000000e+00 0.0000e+00 -1.0000e+00
       21 -1    0    0  501  502 -0.0000000000e+00 -0.0000000000e+00 -2.3075217927e+01 2.3075217927e+01 0.0000000000e+00 0.0000e+00 -1.0000e+00
       25  1    1    2    0    0 +0.0000000000e+00 +0.0000000000e+00 +1.4620812372e+02 1.9235855958e+02 1.2500000000e+02 0.0000e+00 0.0000e+00
<mgrwt>
<rscale>  0 0.12500000E+03</rscale>
<asrwt>0</asrwt>
<pdfrwt beam="1">  1       21 0.26043590E-01 0.12500000E+03</pdfrwt>
<pdfrwt beam="2">  1       21 0.35500336E-02 0.12500000E+03</pdfrwt>
<totfact> 0.65761287E+06</totfact>
</mgrwt>
</event>
<event>
 3      1 +1.7592000e+01 1.25000000e+02 7.54677100e-03 1.23506900e-01
       21 -1    0    0  502  501 +0.0000000000e+00 +0.0000000000e+00 +2.9199504298e+02 2.9199504298e+02 0.0000000000e+00 0.0000e+00 1.0000e+00
       21 -1    0    0  501  502 -0.0000000000e+00 -0.0000000000e+00 -1.3377795596e+01 1.3377795596e+01 0.0000000000e+00 0.0000e+00 1.0000e+00
       25  1    1    2    0    0 +0.0000000000e+00 +0.0000000000e+00 +2.7861724738e+02 3.0537283857e+02 1.2500000000e+02 0.0000e+00 0.0000e+00
<mgrwt>
<rscale>  0 0.12500000E+03</rscale>
<asrwt>0</asrwt>
<pdfrwt beam="1">  1       21 0.44922310E-01 0.12500000E+03</pdfrwt>
<pdfrwt beam="2">  1       21 0.20581226E-02 0.12500000E+03</pdfrwt>
<totfact> 0.55012607E+06</totfact>
</mgrwt>
</event>
<event>
 3      1 +1.7592000e+01 1.25000000e+02 7.54677100e-03 1.23506900e-01
       21 -1    0    0  502  501 +0.0000000000e+00 +0.0000000000e+00 +4.5540647719e+01 4.5540647719e+01 0.0000000000e+00 0.0000e+00 1.0000e+00
       21 -1    0    0  501  502 -0.0000000000e+00 -0.0000000000e+00 -8.5775020683e+01 8.5775020683e+01 0.0000000000e+00 0.0000e+00 1.0000e+00
       25  1    1    2    0    0 +0.0000000000e+00 +0.0000000000e+00 -4.0234372964e+01 1.3131566840e+02 1.2500000000e+02 0.0000e+00 0.0000e+00
<mgrwt>
<rscale>  0 0.12500000E+03</rscale>
<asrwt>0</asrwt>
<pdfrwt beam="1">  1       21 0.70062535E-02 0.12500000E+03</pdfrwt>
<pdfrwt beam="2">  1       21 0.13196157E-01 0.12500000E+03</pdfrwt>
<totfact> 0.73188164E+06</totfact>
</mgrwt>
</event>
<event>
 3      1 +1.7592000e+01 1.25000000e+02 7.54677100e-03 1.23506900e-01
       21 -1    0    0  502  501 +0.0000000000e+00 +0.0000000000e+00 +6.5763372255e+02 6.5763372255e+02 0.0000000000e+00 0.0000e+00 1.0000e+00
       21 -1    0    0  501  502 -0.0000000000e+00 -0.0000000000e+00 -5.9398565889e+00 5.9398565889e+00 0.0000000000e+00 0.0000e+00 1.0000e+00
       25  1    1    2    0    0 +0.0000000000e+00 +0.0000000000e+00 +6.5169386596e+02 6.6357357914e+02 1.2500000000e+02 0.0000e+00 0.0000e+00
<mgrwt>
<rscale>  0 0.12500000E+03</rscale>
<asrwt>0</asrwt>
<pdfrwt beam="1">  1       21 0.10117436E+00 0.12500000E+03</pdfrwt>
<pdfrwt beam="2">  1       21 0.91382461E-03 0.12500000E+03</pdfrwt>
<totfact> 0.34362290E+06</totfact>
</mgrwt>
</event>
<event>
 3      1 +1.7592000e+01 1.25000000e+02 7.54677100e-03 1.23506900e-01
       21 -1    0    0  502  501 +0.0000000000e+00 +0.0000000000e+00 +1.2235447763e+02 1.2235447763e+02 0.0000000000e+00 0.0000e+00 1.0000e+00
       21 -1    0    0  501  502 -0.0000000000e+00 -0.0000000000e+00 -3.1925680822e+01 3.1925680822e+01 0.0000000000e+00 0.0000e+00 1.0000e+00
       25  1    1    2    0    0 +0.0000000000e+00 +0.0000000000e+00 +9.0428796810e+01 1.5428015845e+02 1.2500000000e+02 0.0000e+00 0.0000e+00
<mgrwt>
<rscale>  0 0.12500000E+03</rscale>
<asrwt>0</asrwt>
<pdfrwt beam="1">  1       21 0.18823766E-01 0.12500000E+03</pdfrwt>
<pdfrwt beam="2">  1       21 0.49116433E-02 0.12500000E+03</pdfrwt>
<totfact> 0.70225236E+06</totfact>
</mgrwt>
</event>
<event>
 3      1 +1.7592000e+01 1.25000000e+02 7.54677100e-03 1.23506900e-01
       21 -1    0    0  502  501 +0.0000000000e+00 +0.0000000000e+00 +3.1665628390e+01 3.1665628390e+01 0.0000000000e+00 0.0000e+00 -1.0000e+00
       21 -1    0    0  501  502 -0.0000000000e+00 -0.0000000000e+00 -1.2335930782e+02 1.2335930782e+02 0.0000000000e+00 0.0000e+00 -1.0000e+00
       25  1    1    2    0    0 +0.0000000000e+00 +0.0000000000e+00 -9.1693679434e+01 1.5502493621e+02 1.2500000000e+02 0.0000e+00 0.0000e+00
<mgrwt>
<rscale>  0 0.12500000E+03</rscale>
<asrwt>0</asrwt>
<pdfrwt beam="1">  1       21 0.48716352E-02 0.12500000E+03</pdfrwt>
<pdfrwt beam="2">  1       21 0.18978355E-01 0.12500000E+03</pdfrwt>
<totfact> 0.70132560E+06</totfact>
</mgrwt>
</event>
<event>
 3      1 +1.7592000e+01 1.25000000e+02 7.54677100e-03 1.23506900e-01
       21 -1    0    0  502  501 +0.0000000000e+00 +0.0000000000e+00 +1.2492601690e+01 1.2492601690e+01 0.0000000000e+00 0.0000e+00 1.0000e+00
       21 -1    0    0  501  502 -0.0000000000e+00 -0.0000000000e+00 -3.1268506729e+02 3.1268506729e+02 0.0000000000e+00 0.0000e+00 1.0000e+00
       25  1    1    2    0    0 +0.0000000000e+00 +0.0000000000e+00 -3.0019246560e+02 3.2517766898e+02 1.2500000000e+02 0.0000e+00 0.0000e+00
<mgrwt>
<rscale>  0 0.12500000E+03</rscale>
<asrwt>0</asrwt>
<pdfrwt beam="1">  1       21 0.19219389E-02 0.12500000E+03</pdfrwt>
<pdfrwt beam="2">  1       21 0.48105391E-01 0.12500000E+03</pdfrwt>
<totfact> 0.53425574E+06</totfact>
</mgrwt>
</event>
<event>
 3      1 +1.7592000e+01 1.25000000e+02 7.54677100e-03 1.23506900e-01
       21 -1    0    0  502  501 +0.0000000000e+00 +0.0000000000e+00 +1.5936030322e+01 1.5936030322e+01 0.0000000000e+00 0.0000e+00 1.0000e+00
       21 -1    0    0  501  502 -0.0000000000e+00 -0.0000000000e+00 -2.4512064304e+02 2.4512064304e+02 0.0000000000e+00 0.0000e+00 1.0000e+00
       25  1    1    2    0    0 +0.0000000000e+00 +0.0000000000e+00 -2.2918461272e+02 2.6105667336e+02 1.2500000000e+02 0.0000e+00 0.0000e+00
<mgrwt>
<rscale>  0 0.12500000E+03</rscale>
<asrwt>0</asrwt>
<pdfrwt beam="1">  1       21 0.24516968E-02 0.12500000E+03</pdfrwt>
<pdfrwt beam="2">  1       21 0.37710870E-01 0.12500000E+03</pdfrwt>
<totfact> 0.58852555E+06</totfact>
</mgrwt>
</event>
<event>
 3      1 +1.7592000e+01 1.25000000e+02 7.54677100e-03 1.23506900e-01
       21 -1    0    0  502  501 +0.0000000000e+00 +0.0000000000e+00 +4.8587411884e+02 4.8587411884e+02 0.0000000000e+00 0.0000e+00 -1.0000e+00
       21 -1    0    0  501  502 -0.0000000000e+00 -0.0000000000e+00 -8.0396338239e+00 8.0396338239e+00 0.0000000000e+00 0.0000e+00 -1.0000e+00
       25  1    1    2    0    0 +0.0000000000e+00 +0.0000000000e+00 +4.7783448502e+02 4.9391375267e+02 1.2500000000e+02 0.0000e+00 0.0000e+00
<mgrwt>
<rscale>  0 0.12500000E+03</rscale>
<asrwt>0</asrwt>
<pdfrwt beam="1">  1       21 0.74749841E-01 0.12500000E+03</pdfrwt>
<pdfrwt beam="2">  1       21 0.12368671E-02 0.12500000E+03</pdfrwt>
<totfact> 0.42376084E+06</totfact>
</mgrwt>
</event>
<event>
 3      1 +1.7592000e+01 1.25000000e+02 7.54677100e-03 1.23506900e-01
       21 -1    0    0  502  501 +0.0000000000e+00 +0.0000000000e+00 +1.4299540792e+02 1.4299540792e+02 0.0000000000e+00 0.0000e+00 1.0000e+00
       21 -1    0    0  501  502 -0.0000000000e+00 -0.0000000000e+00 -2.7317310793e+01 2.7317310793e+01 0.0000000000e+00 0.0000e+00 1.0000e+00
       25  1    1    2    0    0 +0.0000000000e+00 +0.0000000000e+00 +1.1567809712e+02 1.7031271871e+02 1.2500000000e+02 0.0000e+00 0.0000e+00
<mgrwt>
<rscale>  0 0.12500000E+03</rscale>
<asrwt>0</asrwt>
<pdfrwt beam="1">  1       21 0.21999293E-01 0.12500000E+03</pdfrwt>
<pdfrwt beam="2">  1       21 0.42026633E-02 0.12500000E+03</pdfrwt>
<totfact> 0.68280584E+06</totfact>
</mgrwt>
</event>
<event>
 3      1 +1.7592000e+01 1.25000000e+02 7.54677100e-03 1.23506900e-01
       21 -1    0    0  502  501 +0.0000000000e+00 +0.0000000000e+00 +6.3903311752e+01 6.3903311752e+01 0.0000000000e+00 0.0000e+00 1.0000e+00
       21 -1    0    0  501  502 -0.0000000000e+00 -0.0000000000e+00 -6.1127504865e+01 6.1127504865e+01 0.0000000000e+00 0.0000e+00 1.0000e+00
       25  1    1    2    0    0 +0.0000000000e+00 +0.0000000000e+00 +2.7758068871e+00 1.2503081662e+02 1.2500000000e+02 0.0000e+00 0.0000e+00
<mgrwt>
<rscale>  0 0.12500000E+03</rscale>
<asrwt>0</asrwt>
<pdfrwt beam="1">  1       21 0.98312788E-02 0.12500000E+03</pdfrwt>
<pdfrwt beam="2">  1       21 0.94042315E-02 0.12500000E+03</pdfrwt>
<totfact> 0.74039419E+06</totfact>
</mgrwt>
</event>
<event>
 3      1 +1.7592000e+01 1.25000000e+02 7.54677100e-03 1.23506900e-01
       21 -1    0    0  502  501 +0.0000000000e+00 +0.0000000000e+00 +9.5129361412e+02 9.5129361412e+02 0.0000000000e+00 0.0000e+00 -1.0000e+00
       21 -1    0    0  501  502 -0.0000000000e+00 -0.0000000000e+00 -4.1062506276e+00 4.1062506276e+00 0.0000000000e+00 0.0000e+00 -1.0000e+00
       25  1    1    2    0    0 +0.0000000000e+00 +0.0000000000e+00 +9.4718736349e+02 9.5539986474e+02 1.2500000000e+02 0.0000e+00 0.0000e+00
<mgrwt>
<rscale>  0 0.12500000E+03</rscale>
<asrwt>0</asrwt>
<pdfrwt beam="1">  1       21 0.14635269E+00 0.12500000E+03</pdfrwt>
<pdfrwt beam="2">  1       21 0.63173162E-03 0.12500000E+03</pdfrwt>
<totfact> 0.24767414E+06</totfact>
</mgrwt>
</event>
<event>
 3      1 +1.7592000e+01 1.25000000e+02 7.54677100e-03 1.23506900e-01
       21 -1    0    0  502  501 +0.0000000000e+00 +0.0000000000e+00 +3.0116396111e+00 3.0116396111e+00 0.0000000000e+00 0.0000e+00 1.0000e+00
       21 -1    0    0  501  502 -0.0000000000e+00 -0.0000000000e+00 -1.2970509438e+03 1.2970509438e+03 0.0000000000e+00 0.0000e+00 1.0000e+00
       25  1    1    2    0    0 +0.0000000000e+00 +0.0000000000e+00 -1.2940393042e+03 1.3000625834e+03 1.2500000000e+02 0.0000e+00 0.0000e+00
<mgrwt>
<rscale>  0 0.12500000E+03</rscale>
<asrwt>0</asrwt>
<pdfrwt beam="1">  1       21 0.46332724E-03 0.12500000E+03</pdfrwt>
<pdfrwt beam="2">  1       21 0.19954713E+00 0.12500000E+03</pdfrwt>
<totfact> 0.17251117E+06</totfact>
</mgrwt>
</event>
<event>
 3      1 +1.7592000e+01 1.25000000e+02 7.54677100e-03 1.23506900e-01
       21 -1    0    0  502  501 +0.0000000000e+00 +0.0000000000e+00 +4.6907621307e+02 4.6907621307e+02 0.0000000000e+00 0.0000e+00 -1.0000e+00
       21 -1    0    0  501  502 -0.0000000000e+00 -0.0000000000e+00 -8.3275380230e+00 8.3275380230e+00 0.0000000000e+00 0.0000e+00 -1.0000e+00
       25  1    1    2    0    0 +0.0000000000e+00 +0.0000000000e+00 +4.6074867504e+02 4.7740375109e+02 1.2500000000e+02 0.0000e+00 0.0000e+00
<mgrwt>
<rscale>  0 0.12500000E+03</rscale>
<asrwt>0</asrwt>
<pdfrwt beam="1">  1       21 0.72165551E-01 0.12500000E+03</pdfrwt>
<pdfrwt beam="2">  1       21 0.12811601E-02 0.12500000E+03</pdfrwt>
<totfact> 0.43296644E+06</totfact>
</mgrwt>
</event>
<event>
 3      1 +1.7592000e+01 1.25000000e+02 7.54677100e-03 1.23506900e-01
       21 -1    0    0  502  501 +0.0000000000e+00 +0.0000000000e+00 +1.2000900592e+01 1.2000900592e+01 0.0000000000e+00 0.0000e+00 -1.0000e+00
       21 -1    0    0  501  502 -0.0000000000e+00 -0.0000000000e+00 -3.2549640506e+02 3.2549640506e+02 0.0000000000e+00 0.0000e+00 -1.0000e+00
       25  1    1    2    0    0 +0.0000000000e+00 +0.0000000000e+00 -3.1349550447e+02 3.3749730565e+02 1.2500000000e+02 0.0000e+00 0.0000e+00
<mgrwt>
<rscale>  0 0.12500000E+03</rscale>
<asrwt>0</asrwt>
<pdfrwt beam="1">  1       21 0.18462922E-02 0.12500000E+03</pdfrwt>
<pdfrwt beam="2">  1       21 0.50076377E-01 0.12500000E+03</pdfrwt>
<totfact> 0.52475255E+06</totfact>
</mgrwt>
</event>
<event>
 3      1 +1.7592000e+01 1.25000000e+02 7.54677100e-03 1.23506900e-01
       21 -1    0    0  502  501 +0.0000000000e+00 +0.0000000000e+00 +2.3213793704e+02 2.3213793704e+02 0.0000000000e+00 0.0000e+00 -1.0000e+00
       21 -1    0    0  501  502 -0.0000000000e+00 -0.0000000000e+00 -1.6827279719e+01 1.6827279719e+01 0.0000000000e+00 0.0000e+00 -1.0000e+00
       25  1    1    2    0    0 +0.0000000000e+00 +0.0000000000e+00 +2.1531065732e+02 2.4896521676e+02 1.2500000000e+02 0.0000e+00 0.0000e+00
<mgrwt>
<rscale>  0 0.12500000E+03</rscale>
<asrwt>0</asrwt>
<pdfrwt beam="1">  1       21 0.35713526E-01 0.12500000E+03</pdfrwt>
<pdfrwt beam="2">  1       21 0.25888124E-02 0.12500000E+03</pdfrwt>
<totfact> 0.59975750E+06</totfact>
</mgrwt>
</event>
<event>
 3      1 +1.7592000e+01 1.25000000e+02 7.54677100e-03 1.23506900e-01
       21 -1    0    0  502  501 +0.0000000000e+00 +0.0000000000e+00 +1.3215394006e+02 1.3215394006e+02 0.0000000000e+00 0.0000e+00 1.0000e+00
       21 -1    0    0  501  502 -0.0000000000e+00 -0.0000000000e+00 -2.9558331733e+01 2.9558331733e+01 0.0000000000e+00 0.0000e+00 1.0000e+00
       25  1    1    2    0    0 +0.0000000000e+00 +0.0000000000e+00 +1.0259560832e+02 1.6171227179e+02 1.2500000000e+02 0.0000e+00 0.0000e+00
<mgrwt>
<rscale>  0 0.12500000E+03</rscale>
<asrwt>0</asrwt>
<pdfrwt beam="1">  1       21 0.20331375E-01 0.12500000E+03</pdfrwt>
<pdfrwt beam="2">  1       21 0.45474357E-02 0.12500000E+03</pdfrwt>
<totfact> 0.69310878E+06</totfact>
</mgrwt>
</event>
<event>
 3      1 +1.7592000e+01 1.25000000e+02 7.54677100e-03 1.23506900e-01
       21 -1    0    0  502  501 +0.0000000000e+00 +0.0000000000e+00 +2.9894420680e+01 2.9894420680e+01 0.0000000000e+00 0.0000e+00 1.0000e+00
       21 -1    0    0  501  502 -0.0000000000e+00 -0.0000000000e+00 -1.3066819531e+02 1.3066819531e+02 0.0000000000e+00 0.0000e+00 1.0000e+00
       25  1    1    2    0    0 +0.0000000000e+00 +0.0000000000e+00 -1.0077377463e+02 1.6056261599e+02 1.2500000000e+02 0.0000e+00 0.0000e+00
<mgrwt>
<rscale>  0 0.12500000E+03</rscale>
<asrwt>0</asrwt>
<pdfrwt beam="1">  1       21 0.45991416E-02 0.12500000E+03</pdfrwt>
<pdfrwt beam="2">  1       21 0.20102799E-01 0.12500000E+03</pdfrwt>
<totfact> 0.69450815E+06</totfact>
</mgrwt>
</event>
<event>
 3      1 +1.7592000e+01 1.25000000e+02 7.54677100e-03 1.23506900e-01
       21 -1    0    0  502  501 +0.0000000000e+00 +0.0000000000e+00 +1.4455387005e+02 1.4455387005e+02 0.0000000000e+00 0.0000e+00 -1.0000e+00
       21 -1    0    0  501  502 -0.0000000000e+00 -0.0000000000e+00 -2.7022797790e+01 2.7022797790e+01 0.0000000000e+00 0.0000e+00 -1.0000e+00
       25  1    1    2    0    0 +0.0000000000e+00 +0.0000000000e+00 +1.1753107226e+02 1.7157666784e+02 1.2500000000e+02 0.0000e+00 0.0000e+00
<mgrwt>
<rscale>  0 0.12500000E+03</rscale>
<asrwt>0</asrwt>
<pdfrwt beam="1">  1       21 0.22239056E-01 0.12500000E+03</pdfrwt>
<pdfrwt beam="2">  1       21 0.41573536E-02 0.12500000E+03</pdfrwt>
<totfact> 0.68131221E+06</totfact>
</mgrwt>
</event>
<event>
 3      1 +1.7592000e+01 1.25000000e+02 7.54677100e-03 1.23506900e-01
       21 -1    0    0  502  501 +0.0000000000e+00 +0.0000000000e+00 +5.2687552862e+01 5.2687552862e+01 0.0000000000e+00 0.0000e+00 -1.0000e+00
       21 -1    0    0  501  502 -0.0000000000e+00 -0.0000000000e+00 -7.4139901890e+01 7.4139901890e+01 0.0000000000e+00 0.0000e+00 -1.0000e+00
       25  1    1    2    0    0 +0.0000000000e+00 +0.0000000000e+00 -2.1452349028e+01 1.2682745475e+02 1.2500000000e+02 0.0000e+00 0.0000e+00
<mgrwt>
<rscale>  0 0.12500000E+03</rscale>
<asrwt>0</asrwt>
<pdfrwt beam="1">  1       21 0.81057774E-02 0.12500000E+03</pdfrwt>
<pdfrwt beam="2">  1       21 0.11406139E-01 0.12500000E+03</pdfrwt>
<totfact> 0.73792644E+06</totfact>
</mgrwt>
</event>
<event>
 3      1 +1.7592000e+01 1.25000000e+02 7.54677100e-03 1.23506900e-01
       21 -1    0    0  502  501 +0.0000000000e+00 +0.0000000000e+00 +2.3861196693e+01 2.3861196693e+01 0.0000000000e+00 0.0000e+00 1.0000e+00
       21 -1    0    0  501  502 -0.0000000000e+00 -0.0000000000e+00 -1.6370721260e+02 1.6370721260e+02 0.0000000000e+00 0.0000e+00 1.0000e+00
       25  1    1    2    0    0 +0.0000000000e+00 +0.0000000000e+00 -1.3984601591e+02 1.8756840930e+02 1.2500000000e+02 0.0000e+00 0.0000e+00
<mgrwt>
<rscale>  0 0.12500000E+03</rscale>
<asrwt>0</asrwt>
<pdfrwt beam="1">  1       21 0.36709532E-02 0.12500000E+03</pdfrwt>
<pdfrwt beam="2">  1       21 0.25185726E-01 0.12500000E+03</pdfrwt>
<totfact> 0.66293737E+06</totfact>
</mgrwt>
</event>
<event>
 3      1 +1.7592000e+01 1.25000000e+02 7.54677100e-03 1.23506900e-01
       21 -1    0    0  502  501 +0.0000000000e+00 +0.0000000000e+00 +3.1813949507e+01 3.1813949507e+01 0.0000000000e+00 0.0000e+00 -1.0000e+00
       21 -1    0    0  501  502 -0.0000000000e+00 -0.0000000000e+00 -1.2278418934e+02 1.2278418934e+02 0.0000000000e+00 0.0000e+00 -1.0000e+00
       25  1    1    2    0    0 +0.0000000000e+00 +0.0000000000e+00 -9.0970239835e+01 1.5459813885e+02 1.2500000000e+02 0.0000e+00 0.0000e+00
<mgrwt>
<rscale>  0 0.12500000E+03</rscale>
<asrwt>0</asrwt>
<pdfrwt beam="1">  1       21 0.48944536E-02 0.12500000E+03</pdfrwt>
<pdfrwt beam="2">  1       21 0.18889876E-01 0.12500000E+03</pdfrwt>
<totfact> 0.70185639E+06</totfact>
</mgrwt>
</event>
<event>
 3      1 +1.7592000e+01 1.25000000e+02 7.54677100e-03 1.23506900e-01
       21 -1    0    0  502  501 +0.0000000000e+00 +0.0000000000e+00 +5.9942056481e+01 5.9942056481e+01 0.0000000000e+00 0.0000e+00 1.0000e+00
       21 -1    0    0  501  502 -0.0000000000e+00 -0.0000000000e+00 -6.5167100186e+01 6.5167100186e+01 0.0000000000e+00 0.0000e+00 1.0000e+00
       25  1    1    2    0    0 +0.0000000000e+00 +0.0000000000e+00 -5.2250437051e+00 1.2510915667e+02 1.2500000000e+02 0.0000e+00 0.0000e+00
<mgrwt>
<rscale>  0 0.12500000E+03</rscale>
<asrwt>0</asrwt>
<pdfrwt beam="1">  1       21 0.92218549E-02 0.12500000E+03</pdfrwt>
<pdfrwt beam="2">  1       21 0.10025708E-01 0.12500000E+03</pdfrwt>
<totfact> 0.74028839E+06</totfact>
</mgrwt>
</event>
<event>
 3      1 +1.7592000e+01 1.25000000e+02 7.54677100e-03 1.23506900e-01
       21 -1    0    0  502  501 +0.0000000000e+00 +0.0000000000e+00 +9.9157440142e+00 9.9157440142e+00 0.0000000000e+00 0.0000e+00 1.0000e+00
       21 -1    0    0  501  502 -0.0000000000e+00 -0.0000000000e+00 -3.9394421582e+02 3.9394421582e+02 0.0000000000e+00 0.0000e+00 1.0000e+00
       25  1    1    2    0    0 +0.0000000000e+00 +0.0000000000e+00 -3.8402847181e+02 4.0385995984e+02 1.2500000000e+02 0.0000e+00 0.0000e+00
<mgrwt>
<rscale>  0 0.12500000E+03</rscale>
<asrwt>0</asrwt>
<pdfrwt beam="1">  1       21 0.15254991E-02 0.12500000E+03</pdfrwt>
<pdfrwt beam="2">  1       21 0.60606800E-01 0.12500000E+03</pdfrwt>
<totfact> 0.47786374E+06</totfact>
</mgrwt>
</event>
<event>
 3      1 +1.7592000e+01 1.25000000e+02 7.54677100e-03 1.23506900e-01
       21 -1    0    0  502  501 +0.0000000000e+00 +0.0000000000e+00 +1.0558960134e+01 1.0558960134e+01 0.0000000000e+00 0.0000e+00 -1.0000e+00
       21 -1    0    0  501  502 -0.0000000000e+00 -0.0000000000e+00 -3.6994646732e+02 3.6994646732e+02 0.0000000000e+00 0.0000e+00 -1.0000e+00
       25  1    1    2    0    0 +0.0000000000e+00 +0.0000000000e+00 -3.5938750719e+02 3.8050542745e+02 1.2500000000e+02 0.0000e+00 0.0000e+00
<mgrwt>
<rscale>  0 0.12500000E+03</rscale>
<asrwt>0</asrwt>
<pdfrwt beam="1">  1       21 0.16244556E-02 0.12500000E+03</pdfrwt>
<pdfrwt beam="2">  1       21 0.56914836E-01 0.12500000E+03</pdfrwt>
<totfact> 0.49361461E+06</totfact>
</mgrwt>
</event>
<event>
 3      1 +1.7592000e+01 1.25000000e+02 7.54677100e-03 1.23506900e-01
       21 -1    0    0  502  501 +0.0000000000e+00 +0.0000000000e+00 +1.0735585868e+01 1.0735585868e+01 0.0000000000e+00 0.0000e+00 -1.0000e+00
       21 -1    0    0  501  502 -0.0000000000e+00 -0.0000000000e+00 -3.6385997448e+02 3.6385997448e+02 0.0000000000e+00 0.0000e+00 -1.0000e+00
       25  1    1    2    0    0 +0.0000000000e+00 +0.0000000000e+00 -3.5312438861e+02 3.7459556035e+02 1.2500000000e+02 0.0000e+00 0.0000e+00
<mgrwt>
<rscale>  0 0.12500000E+03</rscale>
<asrwt>0</asrwt>
<pdfrwt beam="1">  1       21 0.16516289E-02 0.12500000E+03</pdfrwt>
<pdfrwt beam="2">  1       21 0.55978448E-01 0.12500000E+03</pdfrwt>
<totfact> 0.49771716E+06</totfact>
</mgrwt>
</event>
<event>
 3      1 +1.7592000e+01 1.25000000e+02 7.54677100e-03 1.23506900e-01
       21 -1    0    0  502  501 +0.0000000000e+00 +0.0000000000e+00 +2.4365126291e+02 2.4365126291e+02 0.0000000000e+00 0.0000e+00 1.0000e+00
       21 -1    0    0  501  502 -0.0000000000e+00 -0.0000000000e+00 -1.6032135247e+01 1.6032135247e+01 0.0000000000e+00 0.0000e+00 1.0000e+00
       25  1    1    2    0    0 +0.0000000000e+00 +0.0000000000e+00 +2.2761912766e+02 2.5968339815e+02 1.2500000000e+02 0.0000e+00 0.0000e+00
<mgrwt>
<rscale>  0 0.12500000E+03</rscale>
<asrwt>0</asrwt>
<pdfrwt beam="1">  1       21 0.37484807E-01 0.12500000E+03</pdfrwt>
<pdfrwt beam="2">  1       21 0.24664825E-02 0.12500000E+03</pdfrwt>
<totfact> 0.58978303E+06</totfact>
</mgrwt>
</event>
<event>
 3      1 +1.7592000e+01 1.25000000e+02 7.54677100e-03 1.23506900e-01
       21 -1    0    0  502  501 +0.0000000000e+00 +0.0000000000e+00 +1.1378980386e+03 1.1378980386e+03 0.0000000000e+00 0.0000e+00 -1.0000e+00
       21 -1    0    0  501  502 -0.0000000000e+00 -0.0000000000e+00 -3.4328646923e+00 3.4328646923e+00 0.0000000000e+00 0.0000e+00 -1.0000e+00
       25  1    1    2    0    0 +0.0000000000e+00 +0.0000000000e+00 +1.1344651739e+03 1.1413309033e+03 1.2500000000e+02 0.0000e+00 0.0000e+00
<mgrwt>
<rscale>  0 0.12500000E+03</rscale>
<asrwt>0</asrwt>
<pdfrwt beam="1">  1       21 0.17506094E+00 0.12500000E+03</pdfrwt>
<pdfrwt beam="2">  1       21 0.52813393E-03 0.12500000E+03</pdfrwt>
<totfact> 0.20353183E+06</totfact>
</mgrwt>
</event>
<event>
 3      1 +1.7592000e+01 1.25000000e+02 7.54677100e-03 1.23506900e-01
       21 -1    0    0  502  501 +0.0000000000e+00 +0.0000000000e+00 +2.5836049230e+02 2.5836049230e+02 0.0000000000e+00 0.0000e+00 1.0000e+00
       21 -1    0    0  501  502 -0.0000000000e+00 -0.0000000000e+00 -1.5119378219e+01 1.5119378219e+01 0.0000000000e+00 0.0000e+00 1.0000e+00
       25  1    1    2    0    0 +0.0000000000e+00 +0.0000000000e+00 +2.4324111408e+02 2.7347987052e+02 1.2500000000e+02 0.0000e+00 0.0000e+00
<mgrwt>
<rscale>  0 0.12500000E+03</rscale>
<asrwt>0</asrwt>
<pdfrwt beam="1">  1       21 0.39747765E-01 0.12500000E+03</pdfrwt>
<pdfrwt beam="2">  1       21 0.23260584E-02 0.12500000E+03</pdfrwt>
<totfact> 0.57734713E+06</totfact>
</mgrwt>
</event>
<event>
 3      1 +1.7592000e+01 1.25000000e+02 7.54677100e-03 1.23506900e-01
       21 -1    0    0  502  501 +0.0000000000e+00 +0.0000000000e+00 +6.3646125951e+01 6.3646125951e+01 0.0000000000e+00 0.0000e+00 -1.0000e+00
       21 -1    0    0  501  502 -0.0000000000e+00 -0.0000000000e+00 -6.1374513242e+01 6.1374513242e+01 0.0000000000e+00 0.0000e+00 -1.0000e+00
       25  1    1    2    0    0 +0.0000000000e+00 +0.0000000000e+00 +2.2716127086e+00 1.2502063919e+02 1.2500000000e+02 0.0000e+00 0.0000e+00
<mgrwt>
<rscale>  0 0.12500000E+03</rscale>
<asrwt>0</asrwt>
<pdfrwt beam="1">  1       21 0.97917117E-02 0.12500000E+03</pdfrwt>
<pdfrwt beam="2">  1       21 0.94422328E-02 0.12500000E+03</pdfrwt>
<totfact> 0.74040794E+06</totfact>
</mgrwt>
</event>
<event>
 3      1 +1.7592000e+01 1.25000000e+02 7.54677100e-03 1.23506900e-01
       21 -1    0    0  502  501 +0.0000000000e+00 +0.0000000000e+00 +1.0873117193e+02 1.0873117193e+02 0.0000000000e+00 0.0000e+00 1.0000e+00
       21 -1    0    0  501  502 -0.0000000000e+00 -0.0000000000e+00 -3.5925760118e+01 3.5925760118e+01 0.0000000000e+00 0.0000e+00 1.0000e+00
       25  1    1    2    0    0 +0.0000000000e+00 +0.0000000000e+00 +7.2805411807e+01 1.4465693204e+02 1.2500000000e+02 0.0000e+00 0.0000e+00
<mgrwt>
<rscale>  0 0.12500000E+03</rscale>
<asrwt>0</asrwt>
<pdfrwt beam="1">  1       21 0.16727872E-01 0.12500000E+03</pdfrwt>
<pdfrwt beam="2">  1       21 0.55270401E-02 0.12500000E+03</pdfrwt>
<totfact> 0.71437032E+06</totfact>
</mgrwt>
</event>
<event>
 3      1 +1.7592000e+01 1.25000000e+02 7.54677100e-03 1.23506900e-01
       21 -1    0    0  502  501 +0.0000000000e+00 +0.0000000000e+00 +2.2768413384e+01 2.2768413384e+01 0.0000000000e+00 0.0000e+00 1.0000e+00
       21 -1    0    0  501  502 -0.0000000000e+00 -0.0000000000e+00 -1.7156443597e+02 1.7156443597e+02 0.0000000000e+00 0.0000e+00 1.0000e+00
       25  1    1    2    0    0 +0.0000000000e+00 +0.0000000000e+00 -1.4879602258e+02 1.9433284935e+02 1.2500000000e+02 0.0000e+00 0.0000e+00
<mgrwt>
<rscale>  0 0.12500000E+03</rscale>
<asrwt>0</asrwt>
<pdfrwt beam="1">  1       21 0.35028329E-02 0.12500000E+03</pdfrwt>
<pdfrwt beam="2">  1       21 0.26394528E-01 0.12500000E+03</pdfrwt>
<totfact> 0.65544114E+06</totfact>
</mgrwt>
</event>
<event>
 3      1 +1.7592000e+01 1.25000000e+02 7.54677100e-03 1.23506900e-01
       21 -1    0    0  502  501 +0.0000000000e+00 +0.0000000000e+00 +9.2489462167e+00 9.2489462167e+00 0.0000000000e+00 0.0000e+00 1.0000e+00
       21 -1    0    0  501  502 -0.0000000000e+00 -0.0000000000e+00 -4.2234541195e+02 4.2234541195e+02 0.0000000000e+00 0.0000e+00 1.0000e+00
       25  1    1    2    0    0 +0.0000000000e+00 +0.0000000000e+00 -4.1309646573e+02 4.3159435817e+02 1.2500000000e+02 0.0000e+00 0.0000e+00
<mgrwt>
<rscale>  0 0.12500000E+03</rscale>
<asrwt>0</asrwt>
<pdfrwt beam="1">  1       21 0.14229151E-02 0.12500000E+03</pdfrwt>
<pdfrwt beam="2">  1       21 0.64976205E-01 0.12500000E+03</pdfrwt>
<totfact> 0.46013986E+06</totfact>
</mgrwt>
</event>
<event>
 3      1 +1.7592000e+01 1.25000000e+02 7.54677100e-03 1.23506900e-01
       21 -1    0    0  502  501 +0.0000000000e+00 +0.0000000000e+00 +1.8626691931e+03 1.8626691931e+03 0.0000000000e+00 0.0000e+00 1.0000e+00
       21 -1    0    0  501  502 -0.0000000000e+00 -0.0000000000e+00 -2.0971249294e+00 2.0971249294e+00 0.0000000000e+00 0.0000e+00 1.0000e+00
       25  1    1    2    0    0 +0.0000000000e+00 +0.0000000000e+00 +1.8605720682e+03 1.8647663180e+03 1.2500000000e+02 0.0000e+00 0.0000e+00
<mgrwt>
<rscale>  0 0.12500000E+03</rscale>
<asrwt>0</asrwt>
<pdfrwt beam="1">  1       21 0.28656317E+00 0.12500000E+03</pdfrwt>
<pdfrwt beam="2">  1       21 0.32263609E-03 0.12500000E+03</pdfrwt>
<totfact> 0.93442134E+05</totfact>
</mgrwt>
</event>
<event>
 3      1 +1.7592000e+01 1.25000000e+02 7.54677100e-03 1.23506900e-01
       21 -1    0    0  502  501 +0.0000000000e+00 +0.0000000000e+00 +1.6635000074e+01 1.6635000074e+01 0.0000000000e+00 0.0000e+00 -1.0000e+00
       21 -1    0    0  501  502 -0.0000000000e+00 -0.0000000000e+00 -2.3482115916e+02 2.3482115916e+02 0.0000000000e+00 0.0000e+00 -1.0000e+00
       25  1    1    2    0    0 +0.0000000000e+00 +0.0000000000e+00 -2.1818615908e+02 2.5145615923e+02 1.2500000000e+02 0.0000e+00 0.0000e+00
<mgrwt>
<rscale>  0 0.12500000E+03</rscale>
<asrwt>0</asrwt>
<pdfrwt beam="1">  1       21 0.25592307E-02 0.12500000E+03</pdfrwt>
<pdfrwt beam="2">  1       21 0.36126333E-01 0.12500000E+03</pdfrwt>
<totfact> 0.59741363E+06</totfact>
</mgrwt>
</event>
<event>
 3      1 +1.7592000e+01 1.25000000e+02 7.54677100e-03 1.23506900e-01
       21 -1    0    0  502  501 +0.0000000000e+00 +0.0000000000e+00 +2.5516973731e+02 2.5516973731e+02 0.0000000000e+00 0.0000e+00 1.0000e+00
       21 -1    0    0  501  502 -0.0000000000e+00 -0.0000000000e+00 -1.5308437596e+01 1.5308437596e+01 0.0000000000e+00 0.0000e+00 1.0000e+00
       25  1    1    2    0    0 +0.0000000000e+00 +0.0000000000e+00 +2.3986129971e+02 2.7047817491e+02 1.2500000000e+02 0.0000e+00 0.0000e+00
<mgrwt>
<rscale>  0 0.12500000E+03</rscale>
<asrwt>0</asrwt>
<pdfrwt beam="1">  1       21 0.39256880E-01 0.12500000E+03</pdfrwt>
<pdfrwt beam="2">  1       21 0.23551444E-02 0.12500000E+03</pdfrwt>
<totfact> 0.58001998E+06</totfact>
</mgrwt>
</event>
<event>
 3      1 +1.7592000e+01 1.25000000e+02 7.54677100e-03 1.23506900e-01
       21 -1    0    0  502  501 +0.0000000000e+00 +0.0000000000e+00 +2.5523629658e+02 2.5523629658e+02 0.0000000000e+00 0.0000e+00 -1.0000e+00
       21 -1    0    0  501  502 -0.0000000000e+00 -0.0000000000e+00 -1.5304445537e+01 1.5304445537e+01 0.0000000000e+00 0.0000e+00 -1.0000e+00
       25  1    1    2    0    0 +0.0000000000e+00 +0.0000000000e+00 +2.3993185104e+02 2.7054074211e+02 1.2500000000e+02 0.0000e+00 0.0000e+00
<mgrwt>
<rscale>  0 0.12500000E+03</rscale>
<asrwt>0</asrwt>
<pdfrwt beam="1">  1       21 0.39267120E-01 0.12500000E+03</pdfrwt>
<pdfrwt beam="2">  1       21 0.23545303E-02 0.12500000E+03</pdfrwt>
<totfact> 0.57996419E+06</totfact>
</mgrwt>
</event>
<event>
 3      1 +1.7592000e+01 1.25000000e+02 7.54677100e-03 1.23506900e-01
       21 -1    0    0  502  501 +0.0000000000e+00 +0.0000000000e+00 +6.7649906551e+01 6.7649906551e+01 0.0000000000e+00 0.0000e+00 1.0000e+00
       21 -1    0    0  501  502 -0.0000000000e+00 -0.0000000000e+00 -5.7742134456e+01 5.7742134456e+01 0.0000000000e+00 0.0000e+00 1.0000e+00
       25  1    1    2    0    0 +0.0000000000e+00 +0.0000000000e+00 +9.9077720953e+00 1.2539204101e+02 1.2500000000e+02 0.0000e+00 0.0000e+00
<mgrwt>
<rscale>  0 0.12500000E+03</rscale>
<asrwt>0</asrwt>
<pdfrwt beam="1">  1       21 0.10407678E-01 0.12500000E+03</pdfrwt>
<pdfrwt beam="2">  1       21 0.88834054E-02 0.12500000E+03</pdfrwt>
<totfact> 0.73990530E+06</totfact>
</mgrwt>
</event>
<event>
 3      1 +1.7592000e+01 1.25000000e+02 7.54677100e-03 1.23506900e-01
       21 -1    0    0  502  501 +0.0000000000e+00 +0.0000000000e+00 +5.5293527263e+01 5.5293527263e+01 0.0000000000e+00 0.0000e+00 -1.0000e+00
       21 -1    0    0  501  502 -0.0000000000e+00 -0.0000000000e+00 -7.0645701103e+01 7.0645701103e+01 0.0000000000e+00 0.0000e+00 -1.0000e+00
       25  1    1    2    0    0 +0.0000000000e+00 +0.0000000000e+00 -1.5352173840e+01 1.2593922837e+02 1.2500000000e+02 0.0000e+00 0.0000e+00
<mgrwt>
<rscale>  0 0.12500000E+03</rscale>
<asrwt>0</asrwt>
<pdfrwt beam="1">  1       21 0.85066965E-02 0.12500000E+03</pdfrwt>
<pdfrwt beam="2">  1       21 0.10868569E-01 0.12500000E+03</pdfrwt>
<totfact> 0.73914423E+06</totfact>
</mgrwt>
</event>
<event>
 3      1 +1.7592000e+01 1.25000000e+02 7.54677100e-03 1.23506900e-01
       21 -1    0    0  502  501 +0.0000000000e+00 +0.0000000000e+00 +1.1237778000e+01 1.1237778000e+01 0.0000000000e+00 0.0000e+00 -1.0000e+00
       21 -1    0    0  501  502 -0.0000000000e+00 -0.0000000000e+00 -3.4759985471e+02 3.4759985471e+02 0.0000000000e+00 0.0000e+00 -1.0000e+00
       25  1    1    2    0    0 +0.0000000000e+00 +0.0000000000e+00 -3.3636207671e+02 3.5883763271e+02 1.2500000000e+02 0.0000e+00 0.0000e+00
<mgrwt>
<rscale>  0 0.12500000E+03</rscale>
<asrwt>0</asrwt>
<pdfrwt beam="1">  1       21 0.17288888E-02 0.12500000E+03</pdfrwt>
<pdfrwt beam="2">  1       21 0.53476904E-01 0.12500000E+03</pdfrwt>
<totfact> 0.50892296E+06</totfact>
</mgrwt>
</event>
<event>
 3      1 +1.7592000e+01 1.25000000e+02 7.54677100e-03 1.23506900e-01
       21 -1    0    0  502  501 +0.0000000000e+00 +0.0000000000e+00 +1.8250214378e+01 1.8250214378e+01 0.0000000000e+00 0.0000e+00 -1.0000e+00
       21 -1    0    0  501  502 -0.0000000000e+00 -0.0000000000e+00 -2.1403858163e+02 2.1403858163e+02 0.0000000000e+00 0.0000e+00 -1.0000e+00
       25  1    1    2    0    0 +0.0000000000e+00 +0.0000000000e+00 -1.9578836725e+02 2.3228879601e+02 1.2500000000e+02 0.0000e+00 0.0000e+00
<mgrwt>
<rscale>  0 0.12500000E+03</rscale>
<asrwt>0</asrwt>
<pdfrwt beam="1">  1       21 0.28077252E-02 0.12500000E+03</pdfrwt>
<pdfrwt beam="2">  1       21 0.32929014E-01 0.12500000E+03</pdfrwt>
<totfact> 0.61586938E+06</totfact>
</mgrwt>
</event>
<event>
 3      1 +1.7592000e+01 1.25000000e+02 7.54677100e-03 1.23506900e-01
       21 -1    0    0  502  501 +0.0000000000e+00 +0.0000000000e+00 +6.7285428763e+00 6.7285428763e+00 0.0000000000e+00 0.0000e+00 -1.0000e+00
       21 -1    0    0  501  502 -0.0000000000e+00 -0.0000000000e+00 -5.8054917266e+02 5.8054917266e+02 0.0000000000e+00 0.0000e+00 -1.0000e+00
       25  1    1    2    0    0 +0.0000000000e+00 +0.0000000000e+00 -5.7382062978e+02 5.8727771553e+02 1.2500000000e+02 0.0000e+00 0.0000e+00
<mgrwt>
<rscale>  0 0.12500000E+03</rscale>
<asrwt>0</asrwt>
<pdfrwt beam="1">  1       21 0.10351606E-02 0.12500000E+03</pdfrwt>
<pdfrwt beam="2">  1       21 0.89315247E-01 0.12500000E+03</pdfrwt>
<totfact> 0.37674376E+06</totfact>
</mgrwt>
</event>
<event>
 3      1 +1.7592000e+01 1.25000000e+02 7.54677100e-03 1.23506900e-01
       21 -1    0    0  502  501 +0.0000000000e+00 +0.0000000000e+00 +4.3478938598e+01 4.3478938598e+01 0.0000000000e+00 0.0000e+00 1.0000e+00
       21 -1    0    0  501  502 -0.0000000000e+00 -0.0000000000e+00 -8.9842349560e+01 8.9842349560e+01 0.0000000000e+00 0.0000e+00 1.0000e+00
       25  1    1    2    0    0 +0.0000000000e+00 +0.0000000000e+00 -4.6363410963e+01 1.3332128816e+02 1.2500000000e+02 0.0000e+00 0.0000e+00
<mgrwt>
<rscale>  0 0.12500000E+03</rscale>
<asrwt>0</asrwt>
<pdfrwt beam="1">  1       21 0.66890676E-02 0.12500000E+03</pdfrwt>
<pdfrwt beam="2">  1       21 0.13821900E-01 0.12500000E+03</pdfrwt>
<totfact> 0.72919526E+06</totfact>
</mgrwt>
</event>
<event>
 3      1 +1.7592000e+01 1.25000000e+02 7.54677100e-03 1.23506900e-01
       21 -1    0    0  502  501 +0.0000000000e+00 +0.0000000000e+00 +1.5327433960e+01 1.5327433960e+01 0.0000000000e+00 0.0000e+00 -1.0000e+00
       21 -1    0    0  501  502 -0.0000000000e+00 -0.0000000000e+00 -2.5485348756e+02 2.5485348756e+02 0.0000000000e+00 0.0000e+00 -1.0000e+00
       25  1    1    2    0    0 +0.0000000000e+00 +0.0000000000e+00 -2.3952605360e+02 2.7018092152e+02 1.2500000000e+02 0.0000e+00 0.0000e+00
<mgrwt>
<rscale>  0 0.12500000E+03</rscale>
<asrwt>0</asrwt>
<pdfrwt beam="1">  1       21 0.23580666E-02 0.12500000E+03</pdfrwt>
<pdfrwt beam="2">  1       21 0.39208232E-01 0.12500000E+03</pdfrwt>
<totfact> 0.58028512E+06</totfact>
</mgrwt>
</event>
<event>
 3      1 +1.7592000e+01 1.25000000e+02 7.54677100e-03 1.23506900e-01
       21 -1    0    0  502  501 +0.0000000000e+00 +0.0000000000e+00 +1.6290007334e+02 1.6290007334e+02 0.0000000000e+00 0.0000e+00 -1.0000e+00
       21 -1    0    0  501  502 -0.0000000000e+00 -0.0000000000e+00 -2.3979424441e+01 2.3979424441e+01 0.0000000000e+00 0.0000e+00 -1.0000e+00
       25  1    1    2    0    0 +0.0000000000e+00 +0.0000000000e+00 +1.3892064890e+02 1.8687949778e+02 1.2500000000e+02 0.0000e+00 0.0000e+00
<mgrwt>
<rscale>  0 0.12500000E+03</rscale>
<asrwt>0</asrwt>
<pdfrwt beam="1">  1       21 0.25061549E-01 0.12500000E+03</pdfrwt>
<pdfrwt beam="2">  1       21 0.36891423E-02 0.12500000E+03</pdfrwt>
<totfact> 0.66370970E+06</totfact>
</mgrwt>
</event>
<event>
 3      1 +1.7592000e+01 1.25000000e+02 7.54677100e-03 1.23506900e-01
       21 -1    0    0  502  501 +0.0000000000e+00 +0.0000000000e+00 +2.5160170070e+01 2.5160170070e+01 0.0000000000e+00 0.0000e+00 1.0000e+00
       21 -1    0    0  501  502 -0.0000000000e+00 -0.0000000000e+00 -1.5525530985e+02 1.5525530985e+02 0.0000000000e+00 0.0000e+00 1.0000e+00
       25  1    1    2    0    0 +0.0000000000e+00 +0.0000000000e+00 -1.3009513978e+02 1.8041547992e+02 1.2500000000e+02 0.0000e+00 0.0000e+00
<mgrwt>
<rscale>  0 0.12500000E+03</rscale>
<asrwt>0</asrwt>
<pdfrwt beam="1">  1       21 0.38707953E-02 0.12500000E+03</pdfrwt>
<pdfrwt beam="2">  1       21 0.23885433E-01 0.12500000E+03</pdfrwt>
<totfact> 0.67103905E+06</totfact>
</mgrwt>
</event>
<event>
 3      1 +1.7592000e+01 1.25000000e+02 7.54677100e-03 1.23506900e-01
       21 -1    0    0  502  501 +0.0000000000e+00 +0.0000000000e+00 +4.7155564554e+02 4.7155564554e+02 0.0000000000e+00 0.0000e+00 -1.0000e+00
       21 -1    0    0  501  502 -0.0000000000e+00 -0.0000000000e+00 -8.2837519537e+00 8.2837519537e+00 0.0000000000e+00 0.0000e+00 -1.0000e+00
       25  1    1    2    0    0 +0.0000000000e+00 +0.0000000000e+00 +4.6327189359e+02 4.7983939749e+02 1.2500000000e+02 0.0000e+00 0.0000e+00
<mgrwt>
<rscale>  0 0.12500000E+03</rscale>
<asrwt>0</asrwt>
<pdfrwt beam="1">  1       21 0.72547001E-01 0.12500000E+03</pdfrwt>
<pdfrwt beam="2">  1       21 0.12744237E-02 0.12500000E+03</pdfrwt>
<totfact> 0.43158969E+06</totfact>
</mgrwt>
</event>
<event>
 3      1 +1.7592000e+01 1.25000000e+02 7.54677100e-03 1.23506900e-01
       21 -1    0    0  502  501 +0.0000000000e+00 +0.0000000000e+00 +9.4827428959e+00 9.4827428959e+00 0.0000000000e+00 0.0000e+00 1.0000e+00
       21 -1    0    0  501  502 -0.0000000000e+00 -0.0000000000e+00 -4.1193250127e+02 4.1193250127e+02 0.0000000000e+00 0.0000e+00 1.0000e+00
       25  1    1    2    0    0 +0.0000000000e+00 +0.0000000000e+00 -4.0244975837e+02 4.2141524417e+02 1.2500000000e+02 0.0000e+00 0.0000e+00
<mgrwt>
<rscale>  0 0.12500000E+03</rscale>
<asrwt>0</asrwt>
<pdfrwt beam="1">  1       21 0.14588840E-02 0.12500000E+03</pdfrwt>
<pdfrwt beam="2">  1       21 0.63374209E-01 0.12500000E+03</pdfrwt>
<totfact> 0.46652608E+06</totfact>
</mgrwt>
</event>
<event>
 3      1 +1.7592000e+01 1.25000000e+02 7.54677100e-03 1.23506900e-01
       21 -1    0    0  502  501 +0.0000000000e+00 +0.0000000000e+00 +1.6391819792e+00 1.6391819792e+00 0.0000000000e+00 0.0000e+00 1.0000e+00
       21 -1    0    0  501  502 -0.0000000000e+00 -0.0000000000e+00 -2.3830484044e+03 2.3830484044e+03 0.0000000000e+00 0.0000e+00 1.0000e+00
       25  1    1    2    0    0 +0.0000000000e+00 +0.0000000000e+00 -2.3814092224e+03 2.3846875864e+03 1.2500000000e+02 0.0000e+00 0.0000e+00
<mgrwt>
<rscale>  0 0.12500000E+03</rscale>
<asrwt>0</asrwt>
<pdfrwt beam="1">  1       21 0.25218196E-03 0.12500000E+03</pdfrwt>
<pdfrwt beam="2">  1       21 0.36662267E+00 0.12500000E+03</pdfrwt>
<totfact> 0.47686197E+05</totfact>
</mgrwt>
</event>
<event>
 3      1 +1.7592000e+01 1.25000000e+02 7.54677100e-03 1.23506900e-01
       21 -1    0    0  502  501 +0.0000000000e+00 +0.0000000000e+00 +2.3128227103e+02 2.3128227103e+02 0.0000000000e+00 0.0000e+00 1.0000e+00
       21 -1    0    0  501  502 -0.0000000000e+00 -0.0000000000e+00 -1.6889534951e+01 1.6889534951e+01 0.0000000000e+00 0.0000e+00 1.0000e+00
       25  1    1    2    0    0 +0.0000000000e+00 +0.0000000000e+00 +2.1439273608e+02 2.4817180598e+02 1.2500000000e+02 0.0000e+00 0.0000e+00
<mgrwt>
<rscale>  0 0.12500000E+03</rscale>
<asrwt>0</asrwt>
<pdfrwt beam="1">  1       21 0.35581886E-01 0.12500000E+03</pdfrwt>
<pdfrwt beam="2">  1       21 0.25983902E-02 0.12500000E+03</pdfrwt>
<totfact> 0.60050740E+06</totfact>
</mgrwt>
</event>
<event>
 3      1 +1.7592000e+01 1.25000000e+02 7.54677100e-03 1.23506900e-01
       21 -1    0    0  502  501 +0.0000000000e+00 +0.0000000000e+00 +4.6975451534e+01 4.6975451534e+01 0.0000000000e+00 0.0000e+00 -1.0000e+00
       21 -1    0    0  501  502 -0.0000000000e+00 -0.0000000000e+00 -8.3155134701e+01 8.3155134701e+01 0.0000000000e+00 0.0000e+00 -1.0000e+00
       25  1    1    2    0    0 +0.0000000000e+00 +0.0000000000e+00 -3.6179683167e+01 1.3013058624e+02 1.2500000000e+02 0.0000e+00 0.0000e+00
<mgrwt>
<rscale>  0 0.12500000E+03</rscale>
<asrwt>0</asrwt>
<pdfrwt beam="1">  1       21 0.72269927E-02 0.12500000E+03</pdfrwt>
<pdfrwt beam="2">  1       21 0.12793097E-01 0.12500000E+03</pdfrwt>
<totfact> 0.73347467E+06</totfact>
</mgrwt>
</event>
<event>
 3      1 +1.7592000e+01 1.25000000e+02 7.54677100e-03 1.23506900e-01
       21 -1    0    0  502  501 +0.0000000000e+00 +0.0000000000e+00 +2.5996597773e+01 2.5996597773e+01 0.0000000000e+00 0.0000e+00 -1.0000e+00
       21 -1    0    0  501  502 -0.0000000000e+00 -0.0000000000e+00 -1.5026004688e+02 1.5026004688e+02 0.0000000000e+00 0.0000e+00 -1.0000e+00
       25  1    1    2    0    0 +0.0000000000e+00 +0.0000000000e+00 -1.2426344910e+02 1.7625664465e+02 1.2500000000e+02 0.0000e+00 0.0000e+00
<mgrwt>
<rscale>  0 0.12500000E+03</rscale>
<asrwt>0</asrwt>
<pdfrwt beam="1">  1       21 0.39994766E-02 0.12500000E+03</pdfrwt>
<pdfrwt beam="2">  1       21 0.23116930E-01 0.12500000E+03</pdfrwt>
<totfact> 0.67583578E+06</totfact>
</mgrwt>
</event>
<event>
 3      1 +1.7592000e+01 1.25000000e+02 7.54677100e-03 1.23506900e-01
       21 -1    0    0  502  501 +0.0000000000e+00 +0.0000000000e+00 +6.3336048848e+01 6.3336048848e+01 0.0000000000e+00 0.0000e+00 1.0000e+00
       21 -1    0    0  501  502 -0.0000000000e+00 -0.0000000000e+00 -6.1674987169e+01 6.1674987169e+01 0.0000000000e+00 0.0000e+00 1.0000e+00
       25  1    1    2    0    0 +0.0000000000e+00 +0.0000000000e+00 +1.6610616794e+00 1.2501103602e+02 1.2500000000e+02 0.0000e+00 0.0000e+00
<mgrwt>
<rscale>  0 0.12500000E+03</rscale>
<asrwt>0</asrwt>
<pdfrwt beam="1">  1       21 0.97440075E-02 0.12500000E+03</pdfrwt>
<pdfrwt beam="2">  1       21 0.94884595E-02 0.12500000E+03</pdfrwt>
<totfact> 0.74042091E+06</totfact>
</mgrwt>
</event>
<event>
 3      1 +1.7592000e+01 1.25000000e+02 7.54677100e-03 1.23506900e-01
       21 -1    0    0  502  501 +0.0000000000e+00 +0.0000000000e+00 +5.4796188669e+01 5.4796188669e+01 0.0000000000e+00 0.0000e+00 -1.0000e+00
       21 -1    0    0  501  502 -0.0000000000e+00 -0.0000000000e+00 -7.1286892298e+01 7.1286892298e+01 0.0000000000e+00 0.0000e+00 -1.0000e+00
       25  1    1    2    0    0 +0.0000000000e+00 +0.0000000000e+00 -1.6490703629e+01 1.2608308097e+02 1.2500000000e+02 0.0000e+00 0.0000e+00
<mgrwt>
<rscale>  0 0.12500000E+03</rscale>
<asrwt>0</asrwt>
<pdfrwt beam="1">  1       21 0.84301829E-02 0.12500000E+03</pdfrwt>
<pdfrwt beam="2">  1       21 0.10967214E-01 0.12500000E+03</pdfrwt>
<totfact> 0.73894591E+06</totfact>
</mgrwt>
</event>
<event>
 3      1 +1.7592000e+01 1.25000000e+02 7.54677100e-03 1.23506900e-01
       21 -1    0    0  502  501 +0.0000000000e+00 +0.0000000000e+00 +7.2977888964e+01 7.2977888964e+01 0.0000000000e+00 0.0000e+00 -1.0000e+00
       21 -1    0    0  501  502 -0.0000000000e+00 -0.0000000000e+00 -5.3526486658e+01 5.3526486658e+01 0.0000000000e+00 0.0000e+00 -1.0000e+00
       25  1    1    2    0    0 +0.0000000000e+00 +0.0000000000e+00 +1.9451402306e+01 1.2650437562e+02 1.2500000000e+02 0.0000e+00 0.0000e+00
<mgrwt>
<rscale>  0 0.12500000E+03</rscale>
<asrwt>0</asrwt>
<pdfrwt beam="1">  1       21 0.11227368E-01 0.12500000E+03</pdfrwt>
<pdfrwt beam="2">  1       21 0.82348441E-02 0.12500000E+03</pdfrwt>
<totfact> 0.73836774E+06</totfact>
</mgrwt>
</event>
<event>
 3      1 +1.7592000e+01 1.25000000e+02 7.54677100e-03 1.23506900e-01
       21 -1    0    0  502  501 +0.0000000000e+00 +0.0000000000e+00 +7.0097741252e+01 7.0097741252e+01 0.0000000000e+00 0.0000e+00 -1.0000e+00
       21 -1    0    0  501  502 -0.0000000000e+00 -0.0000000000e+00 -5.5725761347e+01 5.5725761347e+01 0.0000000000e+00 0.0000e+00 -1.0000e+00
       25  1    1    2    0    0 +0.0000000000e+00 +0.0000000000e+00 +1.4371979905e+01 1.2582350260e+02 1.2500000000e+02 0.0000e+00 0.0000e+00
<mgrwt>
<rscale>  0 0.12500000E+03</rscale>
<asrwt>0</asrwt>
<pdfrwt beam="1">  1       21 0.10784268E-01 0.12500000E+03</pdfrwt>
<pdfrwt beam="2">  1       21 0.85731941E-02 0.12500000E+03</pdfrwt>
<totfact> 0.73930418E+06</totfact>
</mgrwt>
</event>
<event>
 3      1 +1.7592000e+01 1.25000000e+02 7.54677100e-03 1.23506900e-01
       21 -1    0    0  502  501 +0.0000000000e+00 +0.0000000000e+00 +1.9049511096e+01 1.9049511096e+01 0.0000000000e+00 0.0000e+00 1.0000e+00
       21 -1    0    0  501  502 -0.0000000000e+00 -0.0000000000e+00 -2.0505775610e+02 2.0505775610e+02 0.0000000000e+00 0.0000e+00 1.0000e+00
       25  1    1    2    0    0 +0.0000000000e+00 +0.0000000000e+00 -1.8600824500e+02 2.2410726719e+02 1.2500000000e+02 0.0000e+00 0.0000e+00
<mgrwt>
<rscale>  0 0.12500000E+03</rscale>
<asrwt>0</asrwt>
<pdfrwt beam="1">  1       21 0.29306939E-02 0.12500000E+03</pdfrwt>
<pdfrwt beam="2">  1       21 0.31547348E-01 0.12500000E+03</pdfrwt>
<totfact> 0.62405167E+06</totfact>
</mgrwt>
</event>
<event>
 3      1 +1.7592000e+01 1.25000000e+02 7.54677100e-03 1.23506900e-01
       21 -1    0    0  502  501 +0.0000000000e+00 +0.0000000000e+00 +5.1468887346e+02 5.1468887346e+02 0.0000000000e+00 0.0000e+00 1.0000e+00
       21 -1    0    0  501  502 -0.0000000000e+00 -0.0000000000e+00 -7.5895365169e+00 7.5895365169e+00 0.0000000000e+00 0.0000e+00 1.0000e+00
       25  1    1    2    0    0 +0.0000000000e+00 +0.0000000000e+00 +5.0709933695e+02 5.2227840998e+02 1.2500000000e+02 0.0000e+00 0.0000e+00
<mgrwt>
<rscale>  0 0.12500000E+03</rscale>
<asrwt>0</asrwt>
<pdfrwt beam="1">  1       21 0.79182876E-01 0.12500000E+03</pdfrwt>
<pdfrwt beam="2">  1       21 0.11676214E-02 0.12500000E+03</pdfrwt>
<totfact> 0.40861083E+06</totfact>
</mgrwt>
</event>
<event>
 3      1 +1.7592000e+01 1.25000000e+02 7.54677100e-03 1.23506900e-01
       21 -1    0    0  502  501 +0.0000000000e+00 +0.0000000000e+00 +3.6226924788e+02 3.6226924788e+02 0.0000000000e+00 0.0000e+00 -1.0000e+00
       21 -1    0    0  501  502 -0.0000000000e+00 -0.0000000000e+00 -1.0782725895e+01 1.0782725895e+01 0.0000000000e+00 0.0000e+00 -1.0000e+00
       25  1    1    2    0    0 +0.0000000000e+00 +0.0000000000e+00 +3.5148652199e+02 3.7305197378e+02 1.2500000000e+02 0.0000e+00 0.0000e+00
<mgrwt>
<rscale>  0 0.12500000E+03</rscale>
<asrwt>0</asrwt>
<pdfrwt beam="1">  1       21 0.55733721E-01 0.12500000E+03</pdfrwt>
<pdfrwt beam="2">  1       21 0.16588812E-02 0.12500000E+03</pdfrwt>
<totfact> 0.49879752E+06</totfact>
</mgrwt>
</event>
<event>
 3      1 +1.7592000e+01 1.25000000e+02 7.54677100e-03 1.23506900e-01
       21 -1    0    0  502  501 +0.0000000000e+00 +0.0000000000e+00 +7.5431380881e+01 7.5431380881e+01 0.0000000000e+00 0.0000e+00 1.0000e+00
       21 -1    0    0  501  502 -0.0000000000e+00 -0.0000000000e+00 -5.1785476473e+01 5.1785476473e+01 0.0000000000e+00 0.0000e+00 1.0000e+00
       25  1    1    2    0    0 +0.0000000000e+00 +0.0000000000e+00 +2.3645904408e+01 1.2721685735e+02 1.2500000000e+02 0.0000e+00 0.0000e+00
<mgrwt>
<rscale>  0 0.12500000E+03</rscale>
<asrwt>0</asrwt>
<pdfrwt beam="1">  1       21 0.11604828E-01 0.12500000E+03</pdfrwt>
<pdfrwt beam="2">  1       21 0.79669963E-02 0.12500000E+03</pdfrwt>
<totfact> 0.73739644E+06</totfact>
</mgrwt>
</event>
<event>
 3      1 +1.7592000e+01 1.25000000e+02 7.54677100e-03 1.23506900e-01
       21 -1    0    0  502  501 +0.0000000000e+00 +0.0000000000e+00 +2.8635854129e+01 2.8635854129e+01 0.0000000000e+00 0.0000e+00 -1.0000e+00
       21 -1    0    0  501  502 -0.0000000000e+00 -0.0000000000e+00 -1.3641115723e+02 1.3641115723e+02 0.0000000000e+00 0.0000e+00 -1.0000e+00
       25  1    1    2    0    0 +0.0000000000e+00 +0.0000000000e+00 -1.0777530310e+02 1.6504701136e+02 1.2500000000e+02 0.0000e+00 0.0000e+00
<mgrwt>
<rscale>  0 0.12500000E+03</rscale>
<asrwt>0</asrwt>
<pdfrwt beam="1">  1       21 0.44055161E-02 0.12500000E+03</pdfrwt>
<pdfrwt beam="2">  1       21 0.20986332E-01 0.12500000E+03</pdfrwt>
<totfact> 0.68908004E+06</totfact>
</mgrwt>
</event>
<event>
 3      1 +1.7592000e+01 1.25000000e+02 7.54677100e-03 1.23506900e-01
       21 -1    0    0  502  501 +0.0000000000e+00 +0.0000000000e+00 +6.2728298618e+01 6.2728298618e+01 0.0000000000e+00 0.0000e+00 -1.0000e+00
       21 -1    0    0  501  502 -0.0000000000e+00 -0.0000000000e+00 -6.2272532271e+01 6.2272532271e+01 0.0000000000e+00 0.0000e+00 -1.0000e+00
       25  1    1    2    0    0 +0.0000000000e+00 +0.0000000000e+00 +4.5576634609e-01 1.2500083089e+02 1.2500000000e+02 0.0000e+00 0.0000e+00
<mgrwt>
<rscale>  0 0.12500000E+03</rscale>
<asrwt>0</asrwt>
<pdfrwt beam="1">  1       21 0.96505075E-02 0.12500000E+03</pdfrwt>
<pdfrwt beam="2">  1       21 0.95803896E-02 0.12500000E+03</pdfrwt>
<totfact> 0.74043469E+06</totfact>
</mgrwt>
</event>
<event>
 3      1 +1.7592000e+01 1.25000000e+02 7.54677100e-03 1.23506900e-01
       21 -1    0    0  502  501 +0.0000000000e+00 +0.0000000000e+00 +1.3976498132e+03 1.3976498132e+03 0.0000000000e+00 0.0000e+00 -1.0000e+00
       21 -1    0    0  501  502 -0.0000000000e+00 -0.0000000000e+00 -2.7948703338e+00 2.7948703338e+00 0.0000000000e+00 0.0000e+00 -1.0000e+00
       25  1    1    2    0    0 +0.0000000000e+00 +0.0000000000e+00 +1.3948549429e+03 1.4004446835e+03 1.2500000000e+02 0.0000e+00 0.0000e+00
<mgrwt>
<rscale>  0 0.12500000E+03</rscale>
<asrwt>0</asrwt>
<pdfrwt beam="1">  1       21 0.21502249E+00 0.12500000E+03</pdfrwt>
<pdfrwt beam="2">  1       21 0.42998117E-03 0.12500000E+03</pdfrwt>
<totfact> 0.15537599E+06</totfact>
</mgrwt>
</event>
<event>
 3      1 +1.7592000e+01 1.25000000e+02 7.54677100e-03 1.23506900e-01
       21 -1    0    0  502  501 +0.0000000000e+00 +0.0000000000e+00 +1.0107911628e+01 1.0107911628e+01 0.0000000000e+00 0.0000e+00 1.0000e+00
       21 -1    0    0  501  502 -0.0000000000e+00 -0.0000000000e+00 -3.8645470438e+02 3.8645470438e+02 0.0000000000e+00 0.0000e+00 1.0000e+00
       25  1    1    2    0    0 +0.0000000000e+00 +0.0000000000e+00 -3.7634679275e+02 3.9656261601e+02 1.2500000000e+02 0.0000e+00 0.0000e+00
<mgrwt>
<rscale>  0 0.12500000E+03</rscale>
<asrwt>0</asrwt>
<pdfrwt beam="1">  1       21 0.15550636E-02 0.12500000E+03</pdfrwt>
<pdfrwt beam="2">  1       21 0.59454558E-01 0.12500000E+03</pdfrwt>
<totfact> 0.48270192E+06</totfact>
</mgrwt>
</event>
<event>
 3      1 +1.7592000e+01 1.25000000e+02 7.54677100e-03 1.23506900e-01
       21 -1    0    0  502  501 +0.0000000000e+00 +0.0000000000e+00 +9.8676346987e+01 9.8676346987e+01 0.0000000000e+00 0.0000e+00 -1.0000e+00
       21 -1    0    0  501  502 -0.0000000000e+00 -0.0000000000e+00 -3.9586487738e+01 3.9586487738e+01 0.0000000000e+00 0.0000e+00 -1.0000e+00
       25  1    1    2    0    0 +0.0000000000e+00 +0.0000000000e+00 +5.9089859249e+01 1.3826283472e+02 1.2500000000e+02 0.0000e+00 0.0000e+00
<mgrwt>
<rscale>  0 0.12500000E+03</rscale>
<asrwt>0</asrwt>
<pdfrwt beam="1">  1       21 0.15180976E-01 0.12500000E+03</pdfrwt>
<pdfrwt beam="2">  1       21 0.60902289E-02 0.12500000E+03</pdfrwt>
<totfact> 0.72266911E+06</totfact>
</mgrwt>
</event>
<event>
 3      1 +1.7592000e+01 1.25000000e+02 7.54677100e-03 1.23506900e-01
       21 -1    0    0  502  501 +0.0000000000e+00 +0.0000000000e+00 +6.9756593855e+00 6.9756593855e+00 0.0000000000e+00 0.0000e+00 1.0000e+00
       21 -1    0    0  501  502 -0.0000000000e+00 -0.0000000000e+00 -5.5998290400e+02 5.5998290400e+02 0.0000000000e+00 0.0000e+00 1.0000e+00
       25  1    1    2    0    0 +0.0000000000e+00 +0.0000000000e+00 -5.5300724462e+02 5.6695856339e+02 1.2500000000e+02 0.0000e+00 0.0000e+00
<mgrwt>
<rscale>  0 0.12500000E+03</rscale>
<asrwt>0</asrwt>
<pdfrwt beam="1">  1       21 0.10731787E-02 0.12500000E+03</pdfrwt>
<pdfrwt beam="2">  1       21 0.86151190E-01 0.12500000E+03</pdfrwt>
<totfact> 0.38630841E+06</totfact>
</mgrwt>
</event>
<event>
 3      1 +1.7592000e+01 1.25000000e+02 7.54677100e-03 1.23506900e-01
       21 -1    0    0  502  501 +0.0000000000e+00 +0.0000000000e+00 +4.2997299744e+02 4.2997299744e+02 0.0000000000e+00 0.0000e+00 1.0000e+00
       21 -1    0    0  501  502 -0.0000000000e+00 -0.0000000000e+00 -9.0848728251e+00 9.0848728251e+00 0.0000000000e+00 0.0000e+00 1.0000e+00
       25  1    1    2    0    0 +0.0000000000e+00 +0.0000000000e+00 +4.2088812462e+02 4.3905787027e+02 1.2500000000e+02 0.0000e+00 0.0000e+00
<mgrwt>
<rscale>  0 0.12500000E+03</rscale>
<asrwt>0</asrwt>
<pdfrwt beam="1">  1       21 0.66149676E-01 0.12500000E+03</pdfrwt>
<pdfrwt beam="2">  1       21 0.13976731E-02 0.12500000E+03</pdfrwt>
<totfact> 0.45554176E+06</totfact>
</mgrwt>
</event>
<event>
 3      1 +1.7592000e+01 1.25000000e+02 7.54677100e-03 1.23506900e-01
       21 -1    0    0  502  501 +0.0000000000e+00 +0.0000000000e+00 +2.9715833480e+02 2.9715833480e+02 0.0000000000e+00 0.0000e+00 1.0000e+00
       21 -1    0    0  501  502 -0.0000000000e+00 -0.0000000000e+00 -1.3145348935e+01 1.3145348935e+01 0.0000000000e+00 0.0000e+00 1.0000e+00
       25  1    1    2    0    0 +0.0000000000e+00 +0.0000000000e+00 +2.8401298587e+02 3.1030368374e+02 1.2500000000e+02 0.0000e+00 0.0000e+00
<mgrwt>
<rscale>  0 0.12500000E+03</rscale>
<asrwt>0</asrwt>
<pdfrwt beam="1">  1       21 0.45716662E-01 0.12500000E+03</pdfrwt>
<pdfrwt beam="2">  1       21 0.20223616E-02 0.12500000E+03</pdfrwt>
<totfact> 0.54610623E+06</totfact>
</mgrwt>
</event>
<event>
 3      1 +1.7592000e+01 1.25000000e+02 7.54677100e-03 1.23506900e-01
       21 -1    0    0  502  501 +0.0000000000e+00 +0.0000000000e+00 +4.0169838027e+01 4.0169838027e+01 0.0000000000e+00 0.0000e+00 -1.0000e+00
       21 -1    0    0  501  502 -0.0000000000e+00 -0.0000000000e+00 -9.7243359492e+01 9.7243359492e+01 0.0000000000e+00 0.0000e+00 -1.0000e+00
       25  1    1    2    0    0 +0.0000000000e+00 +0.0000000000e+00 -5.7073521466e+01 1.3741319752e+02 1.2500000000e+02 0.0000e+00 0.0000e+00
<mgrwt>
<rscale>  0 0.12500000E+03</rscale>
<asrwt>0</asrwt>
<pdfrwt beam="1">  1       21 0.61799751E-02 0.12500000E+03</pdfrwt>
<pdfrwt beam="2">  1       21 0.14960517E-01 0.12500000E+03</pdfrwt>
<totfact> 0.72378497E+06</totfact>
</mgrwt>
</event>
<event>
 3      1 +1.7592000e+01 1.25000000e+02 7.54677100e-03 1.23506900e-01
       21 -1    0    0  502  501 +0.0000000000e+00 +0.0000000000e+00 +2.6404430574e+02 2.6404430574e+02 0.0000000000e+00 0.0000e+00 -1.0000e+00
       21 -1    0    0  501  502 -0.0000000000e+00 -0.0000000000e+00 -1.4793918729e+01 1.4793918729e+01 0.0000000000e+00 0.0000e+00 -1.0000e+00
       25  1    1    2    0    0 +0.0000000000e+00 +0.0000000000e+00 +2.4925038701e+02 2.7883822447e+02 1.2500000000e+02 0.0000e+00 0.0000e+00
<mgrwt>
<rscale>  0 0.12500000E+03</rscale>
<asrwt>0</asrwt>
<pdfrwt beam="1">  1       21 0.40622197E-01 0.12500000E+03</pdfrwt>
<pdfrwt beam="2">  1       21 0.22759877E-02 0.12500000E+03</pdfrwt>
<totfact> 0.57261967E+06</totfact>
</mgrwt>
</event>
<event>
 3      1 +1.7592000e+01 1.25000000e+02 7.54677100e-03 1.23506900e-01
       21 -1    0    0  502  501 +0.0000000000e+00 +0.0000000000e+00 +5.7426945270e+01 5.7426945270e+01 0.0000000000e+00 0.0000e+00 1.0000e+00
       21 -1    0    0  501  502 -0.0000000000e+00 -0.0000000000e+00 -6.8021204708e+01 6.8021204708e+01 0.0000000000e+00 0.0000e+00 1.0000e+00
       25  1    1    2    0    0 +0.0000000000e+00 +0.0000000000e+00 -1.0594259438e+01 1.2544814998e+02 1.2500000000e+02 0.0000e+00 0.0000e+00
<mgrwt>
<rscale>  0 0.12500000E+03</rscale>
<asrwt>0</asrwt>
<pdfrwt beam="1">  1       21 0.88349146E-02 0.12500000E+03</pdfrwt>
<pdfrwt beam="2">  1       21 0.10464801E-01 0.12500000E+03</pdfrwt>
<totfact> 0.73982655E+06</totfact>
</mgrwt>
</event>
<event>
 3      1 +1.7592000e+01 1.25000000e+02 7.54677100e-03 1.23506900e-01
       21 -1    0    0  502  501 +0.0000000000e+00 +0.0000000000e+00 +9.2358078007e+01 9.2358078007e+01 0.0000000000e+00 0.0000e+00 -1.0000e+00
       21 -1    0    0  501  502 -0.0000000000e+00 -0.0000000000e+00 -4.2294622022e+01 4.2294622022e+01 0.0000000000e+00 0.0000e+00 -1.0000e+00
       25  1    1    2    0    0 +0.0000000000e+00 +0.0000000000e+00 +5.0063455985e+01 1.3465270003e+02 1.2500000000e+02 0.0000e+00 0.0000e+00
<mgrwt>
<rscale>  0 0.12500000E+03</rscale>
<asrwt>0</asrwt>
<pdfrwt beam="1">  1       21 0.14208935E-01 0.12500000E+03</pdfrwt>
<pdfrwt beam="2">  1       21 0.65068649E-02 0.12500000E+03</pdfrwt>
<totfact> 0.72742489E+06</totfact>
</mgrwt>
</event>
<event>
 3      1 +1.7592000e+01 1.25000000e+02 7.54677100e-03 1.23506900e-01
       21 -1    0    0  502  501 +0.0000000000e+00 +0.0000000000e+00 +6.9735926025e+01 6.9735926025e+01 0.0000000000e+00 0.0000e+00 1.0000e+00
       21 -1    0    0  501  502 -0.0000000000e+00 -0.0000000000e+00 -5.6014886768e+01 5.6014886768e+01 0.0000000000e+00 0.0000e+00 1.0000e+00
       25  1    1    2    0    0 +0.0000000000e+00 +0.0000000000e+00 +1.3721039257e+01 1.2575081279e+02 1.2500000000e+02 0.0000e+00 0.0000e+00
<mgrwt>
<rscale>  0 0.12500000E+03</rscale>
<asrwt>0</asrwt>
<pdfrwt beam="1">  1       21 0.10728604E-01 0.12500000E+03</pdfrwt>
<pdfrwt beam="2">  1       21 0.86176749E-02 0.12500000E+03</pdfrwt>
<totfact> 0.73940487E+06</totfact>
</mgrwt>
</event>
<event>
 3      1 +1.7592000e+01 1.25000000e+02 7.54677100e-03 1.23506900e-01
       21 -1    0    0  502  501 +0.0000000000e+00 +0.0000000000e+00 +7.9272875584e+01 7.9272875584e+01 0.0000000000e+00 0.0000e+00 1.0000e+00
       21 -1    0    0  501  502 -0.0000000000e+00 -0.0000000000e+00 -4.9275997259e+01 4.9275997259e+01 0.0000000000e+00 0.0000e+00 1.0000e+00
       25  1    1    2    0    0 +0.0000000000e+00 +0.0000000000e+00 +2.9996878325e+01 1.2854887284e+02 1.2500000000e+02 0.0000e+00 0.0000e+00
<mgrwt>
<rscale>  0 0.12500000E+03</rscale>
<asrwt>0</asrwt>
<pdfrwt beam="1">  1       21 0.12195827E-01 0.12500000E+03</pdfrwt>
<pdfrwt beam="2">  1       21 0.75809226E-02 0.12500000E+03</pdfrwt>
<totfact> 0.73559541E+06</totfact>
</mgrwt>
</event>
<event>
 3      1 +1.7592000e+01 1.25000000e+02 7.54677100e-03 1.23506900e-01
       21 -1    0    0  502  501 +0.0000000000e+00 +0.0000000000e+00 +5.8188911180e+02 5.8188911180e+02 0.0000000000e+00 0.0000e+00 1.0000e+00
       21 -1    0    0  501  502 -0.0000000000e+00 -0.0000000000e+00 -6.7130487936e+00 6.7130487936e+00 0.0000000000e+00 0.0000e+00 1.0000e+00
       25  1    1    2    0    0 +0.0000000000e+00 +0.0000000000e+00 +5.7517606301e+02 5.8860216060e+02 1.2500000000e+02 0.0000e+00 0.0000e+00
<mgrwt>
<rscale>  0 0.12500000E+03</rscale>
<asrwt>0</asrwt>
<pdfrwt beam="1">  1       21 0.89521362E-01 0.12500000E+03</pdfrwt>
<pdfrwt beam="2">  1       21 0.10327772E-02 0.12500000E+03</pdfrwt>
<totfact> 0.37613220E+06</totfact>
</mgrwt>
</event>
<event>
 3      1 +1.7592000e+01 1.25000000e+02 7.54677100e-03 1.23506900e-01
       21 -1    0    0  502  501 +0.0000000000e+00 +0.0000000000e+00 +2.4564944903e+02 2.4564944903e+02 0.0000000000e+00 0.0000e+00 -1.0000e+00
       21 -1    0    0  501  502 -0.0000000000e+00 -0.0000000000e+00 -1.5901725062e+01 1.5901725062e+01 0.0000000000e+00 0.0000e+00 -1.0000e+00
       25  1    1    2    0    0 +0.0000000000e+00 +0.0000000000e+00 +2.2974772397e+02 2.6155117409e+02 1.2500000000e+02 0.0000e+00 0.0000e+00
<mgrwt>
<rscale>  0 0.12500000E+03</rscale>
<asrwt>0</asrwt>
<pdfrwt beam="1">  1       21 0.37792220E-01 0.12500000E+03</pdfrwt>
<pdfrwt beam="2">  1       21 0.24464194E-02 0.12500000E+03</pdfrwt>
<totfact> 0.58807390E+06</totfact>
</mgrwt>
</event>
<event>
 3      1 +1.7592000e+01 1.25000000e+02 7.54677100e-03 1.23506900e-01
       21 -1    0    0  502  501 +0.0000000000e+00 +0.0000000000e+00 +1.4213079086e+02 1.4213079086e+02 0.0000000000e+00 0.0000e+00 1.0000e+00
       21 -1    0    0  501  502 -0.0000000000e+00 -0.0000000000e+00 -2.7483488808e+01 2.7483488808e+01 0.0000000000e+00 0.0000e+00 1.0000e+00
       25  1    1    2    0    0 +0.0000000000e+00 +0.0000000000e+00 +1.1464730206e+02 1.6961427967e+02 1.2500000000e+02 0.0000e+00 0.0000e+00
<mgrwt>
<rscale>  0 0.12500000E+03</rscale>
<asrwt>0</asrwt>
<pdfrwt beam="1">  1       21 0.21866275E-01 0.12500000E+03</pdfrwt>
<pdfrwt beam="2">  1       21 0.42282291E-02 0.12500000E+03</pdfrwt>
<totfact> 0.68363389E+06</totfact>
</mgrwt>
</event>
<event>
 3      1 +1.7592000e+01 1.25000000e+02 7.54677100e-03 1.23506900e-01
       21 -1    0    0  502  501 +0.0000000000e+00 +0.0000000000e+00 +1.6920275100e+02 1.6920275100e+02 0.0000000000e+00 0.0000e+00 1.0000e+00
       21 -1    0    0  501  502 -0.0000000000e+00 -0.0000000000e+00 -2.3086208569e+01 2.3086208569e+01 0.0000000000e+00 0.0000e+00 1.0000e+00
       25  1    1    2    0    0 +0.0000000000e+00 +0.0000000000e+00 +1.4611654243e+02 1.9228895957e+02 1.2500000000e+02 0.0000e+00 0.0000e+00
<mgrwt>
<rscale>  0 0.12500000E+03</rscale>
<asrwt>0</asrwt>
<pdfrwt beam="1">  1       21 0.26031192E-01 0.12500000E+03</pdfrwt>
<pdfrwt beam="2">  1       21 0.35517245E-02 0.12500000E+03</pdfrwt>
<totfact> 0.65768967E+06</totfact>
</mgrwt>
</event>
<event>
 3      1 +1.7592000e+01 1.25000000e+02 7.54677100e-03 1.23506900e-01
       21 -1    0    0  502  501 +0.0000000000e+00 +0.0000000000e+00 +3.2644657898e+01 3.2644657898e+01 0.0000000000e+00 0.0000e+00 -1.0000e+00
       21 -1    0    0  501  502 -0.0000000000e+00 -0.0000000000e+00 -1.1965970090e+02 1.1965970090e+02 0.0000000000e+00 0.0000e+00 -1.0000e+00
       25  1    1    2    0    0 +0.0000000000e+00 +0.0000000000e+00 -8.7015043000e+01 1.5230435880e+02 1.2500000000e+02 0.0000e+00 0.0000e+00
<mgrwt>
<rscale>  0 0.12500000E+03</rscale>
<asrwt>0</asrwt>
<pdfrwt beam="1">  1       21 0.50222552E-02 0.12500000E+03</pdfrwt>
<pdfrwt beam="2">  1       21 0.18409184E-01 0.12500000E+03</pdfrwt>
<totfact> 0.70470918E+06</totfact>
</mgrwt>
</event>
<event>
 3      1 +1.7592000e+01 1.25000000e+02 7.54677100e-03 1.23506900e-01
       21 -1    0    0  502  501 +0.0000000000e+00 +0.0000000000e+00 +1.9644977768e+02 1.9644977768e+02 0.0000000000e+00 0.0000e+00 -1.0000e+00
       21 -1    0    0  501  502 -0.0000000000e+00 -0.0000000000e+00 -1.9884216954e+01 1.9884216954e+01 0.0000000000e+00 0.0000e+00 -1.0000e+00
       25  1    1    2    0    0 +0.0000000000e+00 +0.0000000000e+00 +1.7656556073e+02 2.1633399463e+02 1.2500000000e+02 0.0000e+00 0.0000e+00
<mgrwt>
<rscale>  0 0.12500000E+03</rscale>
<asrwt>0</asrwt>
<pdfrwt beam="1">  1       21 0.30223041E-01 0.12500000E+03</pdfrwt>
<pdfrwt beam="2">  1       21 0.30591104E-02 0.12500000E+03</pdfrwt>
<totfact> 0.63199228E+06</totfact>
</mgrwt>
</event>
<event>
 3      1 +1.7592000e+01 1.25000000e+02 7.54677100e-03 1.23506900e-01
       21 -1    0    0  502  501 +0.0000000000e+00 +0.0000000000e+00 +8.4047715063e+01 8.4047715063e+01 0.0000000000e+00 0.0000e+00 -1.0000e+00
       21 -1    0    0  501  502 -0.0000000000e+00 -0.0000000000e+00 -4.6476575801e+01 4.6476575801e+01 0.0000000000e+00 0.0000e+00 -1.0000e+00
       25  1    1    2    0    0 +0.0000000000e+00 +0.0000000000e+00 +3.7571139262e+01 1.3052429086e+02 1.2500000000e+02 0.0000e+00 0.0000e+00
<mgrwt>
<rscale>  0 0.12500000E+03</rscale>
<asrwt>0</asrwt>
<pdfrwt beam="1">  1       21 0.12930418E-01 0.12500000E+03</pdfrwt>
<pdfrwt beam="2">  1       21 0.71502424E-02 0.12500000E+03</pdfrwt>
<totfact> 0.73294850E+06</totfact>
</mgrwt>
</event>
<event>
 3      1 +1.7592000e+01 1.25000000e+02 7.54677100e-03 1.23506900e-01
       21 -1    0    0  502  501 +0.0000000000e+00 +0.0000000000e+00 +1.2878205290e+02 1.2878205290e+02 0.0000000000e+00 0.0000e+00 -1.0000e+00
       21 -1    0    0  501  502 -0.0000000000e+00 -0.0000000000e+00 -3.0332254472e+01 3.0332254472e+01 0.0000000000e+00 0.0000e+00 -1.0000e+00
       25  1    1    2    0    0 +0.0000000000e+00 +0.0000000000e+00 +9.8449798429e+01 1.5911430737e+02 1.2500000000e+02 0.0000e+00 0.0000e+00
<mgrwt>
<rscale>  0 0.12500000E+03</rscale>
<asrwt>0</asrwt>
<pdfrwt beam="1">  1       21 0.19812623E-01 0.12500000E+03</pdfrwt>
<pdfrwt beam="2">  1       21 0.46665008E-02 0.12500000E+03</pdfrwt>
<totfact> 0.69627880E+06</totfact>
</mgrwt>
</event>
<event>
 3      1 +1.7592000e+01 1.25000000e+02 7.54677100e-03 1.23506900e-01
       21 -1    0    0  502  501 +0.0000000000e+00 +0.0000000000e+00 +3.3849346810e+02 3.3849346810e+02 0.0000000000e+00 0.0000e+00 -1.0000e+00
       21 -1    0    0  501  502 -0.0000000000e+00 -0.0000000000e+00 -1.1540104516e+01 1.1540104516e+01 0.0000000000e+00 0.0000e+00 -1.0000e+00
       25  1    1    2    0    0 +0.0000000000e+00 +0.0000000000e+00 +3.2695336358e+02 3.5003357262e+02 1.2500000000e+02 0.0000e+00 0.0000e+00
<mgrwt>
<rscale>  0 0.12500000E+03</rscale>
<asrwt>0</asrwt>
<pdfrwt beam="1">  1       21 0.52075911E-01 0.12500000E+03</pdfrwt>
<pdfrwt beam="2">  1       21 0.17754010E-02 0.12500000E+03</pdfrwt>
<totfact> 0.51535956E+06</totfact>
</mgrwt>
</event>
<event>
 3      1 +1.7592000e+01 1.25000000e+02 7.54677100e-03 1.23506900e-01
       21 -1    0    0  502  501 +0.0000000000e+00 +0.0000000000e+00 +2.2068637386e+01 2.2068637386e+01 0.0000000000e+00 0.0000e+00 -1.0000e+00
       21 -1    0    0  501  502 -0.0000000000e+00 -0.0000000000e+00 -1.7700458491e+02 1.7700458491e+02 0.0000000000e+00 0.0000e+00 -1.0000e+00
       25  1    1    2    0    0 +0.0000000000e+00 +0.0000000000e+00 -1.5493594752e+02 1.9907322230e+02 1.2500000000e+02 0.0000e+00 0.0000e+00
<mgrwt>
<rscale>  0 0.12500000E+03</rscale>
<asrwt>0</asrwt>
<pdfrwt beam="1">  1       21 0.33951749E-02 0.12500000E+03</pdfrwt>
<pdfrwt beam="2">  1       21 0.27231476E-01 0.12500000E+03</pdfrwt>
<totfact> 0.65027812E+06</totfact>
</mgrwt>
</event>
<event>
 3      1 +1.7592000e+01 1.25000000e+02 7.54677100e-03 1.23506900e-01
       21 -1    0    0  502  501 +0.0000000000e+00 +0.0000000000e+00 +1.9198265729e+01 1.9198265729e+01 0.0000000000e+00 0.0000e+00 -1.0000e+00
       21 -1    0    0  501  502 -0.0000000000e+00 -0.0000000000e+00 -2.0346889949e+02 2.0346889949e+02 0.0000000000e+00 0.0000e+00 -1.0000e+00
       25  1    1    2    0    0 +0.0000000000e+00 +0.0000000000e+00 -1.8427063376e+02 2.2266716522e+02 1.2500000000e+02 0.0000e+00 0.0000e+00
<mgrwt>
<rscale>  0 0.12500000E+03</rscale>
<asrwt>0</asrwt>
<pdfrwt beam="1">  1       21 0.29535793E-02 0.12500000E+03</pdfrwt>
<pdfrwt beam="2">  1       21 0.31302908E-01 0.12500000E+03</pdfrwt>
<totfact> 0.62550951E+06</totfact>
</mgrwt>
</event>
<event>
 3      1 +1.7592000e+01 1.25000000e+02 7.54677100e-03 1.23506900e-01
       21 -1    0    0  502  501 +0.0000000000e+00 +0.0000000000e+00 +1.6229567947e+02 1.6229567947e+02 0.0000000000e+00 0.0000e+00 1.0000e+00
       21 -1    0    0  501  502 -0.0000000000e+00 -0.0000000000e+00 -2.4068724520e+01 2.4068724520e+01 0.0000000000e+00 0.0000e+00 1.0000e+00
       25  1    1    2    0    0 +0.0000000000e+00 +0.0000000000e+00 +1.3822695496e+02 1.8636440399e+02 1.2500000000e+02 0.0000e+00 0.0000e+00
<mgrwt>
<rscale>  0 0.12500000E+03</rscale>
<asrwt>0</asrwt>
<pdfrwt beam="1">  1       21 0.24968565E-01 0.12500000E+03</pdfrwt>
<pdfrwt beam="2">  1       21 0.37028808E-02 0.12500000E+03</pdfrwt>
<totfact> 0.66428825E+06</totfact>
</mgrwt>
</event>
<event>
 3      1 +1.7592000e+01 1.25000000e+02 7.54677100e-03 1.23506900e-01
       21 -1    0    0  502  501 +0.0000000000e+00 +0.0000000000e+00 +2.0685610110e+02 2.0685610110e+02 0.0000000000e+00 0.0000e+00 -1.0000e+00
       21 -1    0    0  501  502 -0.0000000000e+00 -0.0000000000e+00 -1.8883900351e+01 1.8883900351e+01 0.0000000000e+00 0.0000e+00 -1.0000e+00
       25  1    1    2    0    0 +0.0000000000e+00 +0.0000000000e+00 +1.8797220075e+02 2.2574000145e+02 1.2500000000e+02 0.0000e+00 0.0000e+00
<mgrwt>
<rscale>  0 0.12500000E+03</rscale>
<asrwt>0</asrwt>
<pdfrwt beam="1">  1       21 0.31824014E-01 0.12500000E+03</pdfrwt>
<pdfrwt beam="2">  1       21 0.29052156E-02 0.12500000E+03</pdfrwt>
<totfact> 0.62240495E+06</totfact>
</mgrwt>
</event>
<event>
 3      1 +1.7592000e+01 1.25000000e+02 7.54677100e-03 1.23506900e-01
       21 -1    0    0  502  501 +0.0000000000e+00 +0.0000000000e+00 +2.5919876402e+02 2.5919876402e+02 0.0000000000e+00 0.0000e+00 -1.0000e+00
       21 -1    0    0  501  502 -0.0000000000e+00 -0.0000000000e+00 -1.5070480813e+01 1.5070480813e+01 0.0000000000e+00 0.0000e+00 -1.0000e+00
       25  1    1    2    0    0 +0.0000000000e+00 +0.0000000000e+00 +2.4412828321e+02 2.7426924484e+02 1.2500000000e+02 0.0000e+00 0.0000e+00
<mgrwt>
<rscale>  0 0.12500000E+03</rscale>
<asrwt>0</asrwt>
<pdfrwt beam="1">  1       21 0.39876730E-01 0.12500000E+03</pdfrwt>
<pdfrwt beam="2">  1       21 0.23185357E-02 0.12500000E+03</pdfrwt>
<totfact> 0.57664663E+06</totfact>
</mgrwt>
</event>
<event>
 3      1 +1.7592000e+01 1.25000000e+02 7.54677100e-03 1.23506900e-01
       21 -1    0    0  502  501 +0.0000000000e+00 +0.0000000000e+00 +1.4096262046e+02 1.4096262046e+02 0.0000000000e+00 0.0000e+00 1.0000e+00
       21 -1    0    0  501  502 -0.0000000000e+00 -0.0000000000e+00 -2.7711247048e+01 2.7711247048e+01 0.0000000000e+00 0.0000e+00 1.0000e+00
       25  1    1    2    0    0 +0.0000000000e+00 +0.0000000000e+00 +1.1325137341e+02 1.6867386750e+02 1.2500000000e+02 0.0000e+00 0.0000e+00
<mgrwt>
<rscale>  0 0.12500000E+03</rscale>
<asrwt>0</asrwt>
<pdfrwt beam="1">  1       21 0.21686557E-01 0.12500000E+03</pdfrwt>
<pdfrwt beam="2">  1       21 0.42632689E-02 0.12500000E+03</pdfrwt>
<totfact> 0.68474868E+06</totfact>
</mgrwt>
</event>
<event>
 3      1 +1.7592000e+01 1.25000000e+02 7.54677100e-03 1.23506900e-01
       21 -1    0    0  502  501 +0.0000000000e+00 +0.0000000000e+00 +7.6422629469e+01 7.6422629469e+01 0.0000000000e+00 0.0000e+00 -1.0000e+00
       21 -1    0    0  501  502 -0.0000000000e+00 -0.0000000000e+00 -5.1113786939e+01 5.1113786939e+01 0.0000000000e+00 0.0000e+00 -1.0000e+00
       25  1    1    2    0    0 +0.0000000000e+00 +0.0000000000e+00 +2.5308842530e+01 1.2753641641e+02 1.2500000000e+02 0.0000e+00 0.0000e+00
<mgrwt>
<rscale>  0 0.12500000E+03</rscale>
<asrwt>0</asrwt>
<pdfrwt beam="1">  1       21 0.11757328E-01 0.12500000E+03</pdfrwt>
<pdfrwt beam="2">  1       21 0.78636595E-02 0.12500000E+03</pdfrwt>
<totfact> 0.73696282E+06</totfact>
</mgrwt>
</event>
<event>
 3      1 +1.7592000e+01 1.25000000e+02 7.54677100e-03 1.23506900e-01
       21 -1    0    0  502  501 +0.0000000000e+00 +0.0000000000e+00 +6.9508364958e+02 6.9508364958e+02 0.0000000000e+00 0.0000e+00 1.0000e+00
       21 -1    0    0  501  502 -0.0000000000e+00 -0.0000000000e+00 -5.6198271997e+00 5.6198271997e+00 0.0000000000e+00 0.0000e+00 1.0000e+00
       25  1    1    2    0    0 +0.0000000000e+00 +0.0000000000e+00 +6.8946382238e+02 7.0070347678e+02 1.2500000000e+02 0.0000e+00 0.0000e+00
<mgrwt>
<rscale>  0 0.12500000E+03</rscale>
<asrwt>0</asrwt>
<pdfrwt beam="1">  1       21 0.10693588E+00 0.12500000E+03</pdfrwt>
<pdfrwt beam="2">  1       21 0.86458935E-03 0.12500000E+03</pdfrwt>
<totfact> 0.32883052E+06</totfact>
</mgrwt>
</event>
<event>
 3      1 +1.7592000e+01 1.25000000e+02 7.54677100e-03 1.23506900e-01
       21 -1    0    0  502  501 +0.0000000000e+00 +0.0000000000e+00 +1.2242220574e+01 1.2242220574e+01 0.0000000000e+00 0.0000e+00 1.0000e+00
       21 -1    0    0  501  502 -0.0000000000e+00 -0.0000000000e+00 -3.1908018455e+02 3.1908018455e+02 0.0000000000e+00 0.0000e+00 1.0000e+00
       25  1    1    2    0    0 +0.0000000000e+00 +0.0000000000e+00 -3.0683796398e+02 3.3132240513e+02 1.2500000000e+02 0.0000e+00 0.0000e+00
<mgrwt>
<rscale>  0 0.12500000E+03</rscale>
<asrwt>0</asrwt>
<pdfrwt beam="1">  1       21 0.18834185E-02 0.12500000E+03</pdfrwt>
<pdfrwt beam="2">  1       21 0.49089261E-01 0.12500000E+03</pdfrwt>
<totfact> 0.52948121E+06</totfact>
</mgrwt>
</event>
<event>
 3      1 +1.7592000e+01 1.25000000e+02 7.54677100e-03 1.23506900e-01
       21 -1    0    0  502  501 +0.0000000000e+00 +0.0000000000e+00 +3.4432218194e+01 3.4432218194e+01 0.0000000000e+00 0.0000e+00 1.0000e+00
       21 -1    0    0  501  502 -0.0000000000e+00 -0.0000000000e+00 -1.1344752691e+02 1.1344752691e+02 0.0000000000e+00 0.0000e+00 1.0000e+00
       25  1    1    2    0    0 +0.0000000000e+00 +0.0000000000e+00 -7.9015308711e+01 1.4787974510e+02 1.2500000000e+02 0.0000e+00 0.0000e+00
<mgrwt>
<rscale>  0 0.12500000E+03</rscale>
<asrwt>0</asrwt>
<pdfrwt beam="1">  1       21 0.52972644E-02 0.12500000E+03</pdfrwt>
<pdfrwt beam="2">  1       21 0.17453466E-01 0.12500000E+03</pdfrwt>
<totfact> 0.71026570E+06</totfact>
</mgrwt>
</event>
<event>
 3      1 +1.7592000e+01 1.25000000e+02 7.54677100e-03 1.23506900e-01
       21 -1    0    0  502  501 +0.0000000000e+00 +0.0000000000e+00 +2.4365933888e+01 2.4365933888e+01 0.0000000000e+00 0.0000e+00 -1.0000e+00
       21 -1    0    0  501  502 -0.0000000000e+00 -0.0000000000e+00 -1.6031603869e+02 1.6031603869e+02 0.0000000000e+00 0.0000e+00 -1.0000e+00
       25  1    1    2    0    0 +0.0000000000e+00 +0.0000000000e+00 -1.3595010481e+02 1.8468197258e+02 1.2500000000e+02 0.0000e+00 0.0000e+00
<mgrwt>
<rscale>  0 0.12500000E+03</rscale>
<asrwt>0</asrwt>
<pdfrwt beam="1">  1       21 0.37486051E-02 0.12500000E+03</pdfrwt>
<pdfrwt beam="2">  1       21 0.24664007E-01 0.12500000E+03</pdfrwt>
<totfact> 0.66618452E+06</totfact>
</mgrwt>
</event>
<event>
 3      1 +1.7592000e+01 1.25000000e+02 7.54677100e-03 1.23506900e-01
       21 -1    0    0  502  501 +0.0000000000e+00 +0.0000000000e+00 +5.4279029916e+01 5.4279029916e+01 0.0000000000e+00 0.0000e+00 -1.0000e+00
       21 -1    0    0  501  502 -0.0000000000e+00 -0.0000000000e+00 -7.1966098253e+01 7.1966098253e+01 0.0000000000e+00 0.0000e+00 -1.0000e+00
       25  1    1    2    0    0 +0.0000000000e+00 +0.0000000000e+00 -1.7687068338e+01 1.2624512817e+02 1.2500000000e+02 0.0000e+00 0.0000e+00
<mgrwt>
<rscale>  0 0.12500000E+03</rscale>
<asrwt>0</asrwt>
<pdfrwt beam="1">  1       21 0.83506199E-02 0.12500000E+03</pdfrwt>
<pdfrwt beam="2">  1       21 0.11071707E-01 0.12500000E+03</pdfrwt>
<totfact> 0.73872311E+06</totfact>
</mgrwt>
</event>
<event>
 3      1 +1.7592000e+01 1.25000000e+02 7.54677100e-03 1.23506900e-01
       21 -1    0    0  502  501 +0.0000000000e+00 +0.0000000000e+00 +1.6368730585e+01 1.6368730585e+01 0.0000000000e+00 0.0000e+00 -1.0000e+00
       21 -1    0    0  501  502 -0.0000000000e+00 -0.0000000000e+00 -2.3864098561e+02 2.3864098561e+02 0.0000000000e+00 0.0000e+00 -1.0000e+00
       25  1    1    2    0    0 +0.0000000000e+00 +0.0000000000e+00 -2.2227225503e+02 2.5500971620e+02 1.2500000000e+02 0.0000e+00 0.0000e+00
<mgrwt>
<rscale>  0 0.12500000E+03</rscale>
<asrwt>0</asrwt>
<pdfrwt beam="1">  1       21 0.25182662E-02 0.12500000E+03</pdfrwt>
<pdfrwt beam="2">  1       21 0.36713998E-01 0.12500000E+03</pdfrwt>
<totfact> 0.59409712E+06</totfact>
</mgrwt>
</event>
<event>
 3      1 +1.7592000e+01 1.25000000e+02 7.54677100e-03 1.23506900e-01
       21 -1    0    0  502  501 +0.0000000000e+00 +0.0000000000e+00 +4.6400611458e+02 4.6400611458e+02 0.0000000000e+00 0.0000e+00 1.0000e+00
       21 -1    0    0  501  502 -0.0000000000e+00 -0.0000000000e+00 -8.4185313022e+00 8.4185313022e+00 0.0000000000e+00 0.0000e+00 1.0000e+00
       25  1    1    2    0    0 +0.0000000000e+00 +0.0000000000e+00 +4.5558758328e+02 4.7242464588e+02 1.2500000000e+02 0.0000e+00 0.0000e+00
<mgrwt>
<rscale>  0 0.12500000E+03</rscale>
<asrwt>0</asrwt>
<pdfrwt beam="1">  1       21 0.71385536E-01 0.12500000E+03</pdfrwt>
<pdfrwt beam="2">  1       21 0.12951590E-02 0.12500000E+03</pdfrwt>
<totfact> 0.43580147E+06</totfact>
</mgrwt>
</event>
<event>
 3      1 +1.7592000e+01 1.25000000e+02 7.54677100e-03 1.23506900e-01
       21 -1    0    0  502  501 +0.0000000000e+00 +0.0000000000e+00 +4.8456190181e+01 4.8456190181e+01 0.0000000000e+00 0.0000e+00 -1.0000e+00
       21 -1    0    0  501  502 -0.0000000000e+00 -0.0000000000e+00 -8.0614055405e+01 8.0614055405e+01 0.0000000000e+00 0.0000e+00 -1.0000e+00
       25  1    1    2    0    0 +0.0000000000e+00 +0.0000000000e+00 -3.2157865224e+01 1.2907024559e+02 1.2500000000e+02 0.0000e+00 0.0000e+00
<mgrwt>
<rscale>  0 0.12500000E+03</rscale>
<asrwt>0</asrwt>
<pdfrwt beam="1">  1       21 0.74547985E-02 0.12500000E+03</pdfrwt>
<pdfrwt beam="2">  1       21 0.12402162E-01 0.12500000E+03</pdfrwt>
<totfact> 0.73489448E+06</totfact>
</mgrwt>
</event>
<event>
 3      1 +1.7592000e+01 1.25000000e+02 7.54677100e-03 1.23506900e-01
       21 -1    0    0  502  501 +0.0000000000e+00 +0.0000000000e+00 +2.5856499347e+02 2.5856499347e+02 0.0000000000e+00 0.0000e+00 1.0000e+00
       21 -1    0    0  501  502 -0.0000000000e+00 -0.0000000000e+00 -1.5107420179e+01 1.5107420179e+01 0.0000000000e+00 0.0000e+00 1.0000e+00
       25  1    1    2    0    0 +0.0000000000e+00 +0.0000000000e+00 +2.4345757329e+02 2.7367241365e+02 1.2500000000e+02 0.0000e+00 0.0000e+00
<mgrwt>
<rscale>  0 0.12500000E+03</rscale>
<asrwt>0</asrwt>
<pdfrwt beam="1">  1       21 0.39779227E-01 0.12500000E+03</pdfrwt>
<pdfrwt beam="2">  1       21 0.23242187E-02 0.12500000E+03</pdfrwt>
<totfact> 0.57717614E+06</totfact>
</mgrwt>
</event>
<event>
 3      1 +1.7592000e+01 1.25000000e+02 7.54677100e-03 1.23506900e-01
       21 -1    0    0  502  501 +0.0000000000e+00 +0.0000000000e+00 +7.1854993183e+01 7.1854993183e+01 0.0000000000e+00 0.0000e+00 -1.0000e+00
       21 -1    0    0  501  502 -0.0000000000e+00 -0.0000000000e+00 -5.4362958327e+01 5.4362958327e+01 0.0000000000e+00 0.0000e+00 -1.0000e+00
       25  1    1    2    0    0 +0.0000000000e+00 +0.0000000000e+00 +1.7492034855e+01 1.2621795151e+02 1.2500000000e+02 0.0000e+00 0.0000e+00
<mgrwt>
<rscale>  0 0.12500000E+03</rscale>
<asrwt>0</asrwt>
<pdfrwt beam="1">  1       21 0.11054614E-01 0.12500000E+03</pdfrwt>
<pdfrwt beam="2">  1       21 0.83635320E-02 0.12500000E+03</pdfrwt>
<totfact> 0.73876043E+06</totfact>
</mgrwt>
</event>
<event>
 3      1 +1.7592000e+01 1.25000000e+02 7.54677100e-03 1.23506900e-01
       21 -1    0    0  502  501 +0.0000000000e+00 +0.0000000000e+00 +8.0810267068e+01 8.0810267068e+01 0.0000000000e+00 0.0000e+00 1.0000e+00
       21 -1    0    0  501  502 -0.0000000000e+00 -0.0000000000e+00 -4.8338535953e+01 4.8338535953e+01 0.0000000000e+00 0.0000e+00 1.0000e+00
       25  1    1    2    0    0 +0.0000000000e+00 +0.0000000000e+00 +3.2471731115e+01 1.2914880302e+02 1.2500000000e+02 0.0000e+00 0.0000e+00
<mgrwt>
<rscale>  0 0.12500000E+03</rscale>
<asrwt>0</asrwt>
<pdfrwt beam="1">  1       21 0.12432349E-01 0.12500000E+03</pdfrwt>
<pdfrwt beam="2">  1       21 0.74366978E-02 0.12500000E+03</pdfrwt>
<totfact> 0.73478904E+06</totfact>
</mgrwt>
</event>
<event>
 3      1 +1.7592000e+01 1.25000000e+02 7.54677100e-03 1.23506900e-01
       21 -1    0    0  502  501 +0.0000000000e+00 +0.0000000000e+00 +3.5019019189e+00 3.5019019189e+00 0.0000000000e+00 0.0000e+00 -1.0000e+00
       21 -1    0    0  501  502 -0.0000000000e+00 -0.0000000000e+00 -1.1154652787e+03 1.1154652787e+03 0.0000000000e+00 0.0000e+00 -1.0000e+00
       25  1    1    2    0    0 +0.0000000000e+00 +0.0000000000e+00 -1.1119633768e+03 1.1189671806e+03 1.2500000000e+02 0.0000e+00 0.0000e+00
<mgrwt>
<rscale>  0 0.12500000E+03</rscale>
<asrwt>0</asrwt>
<pdfrwt beam="1">  1       21 0.53875404E-03 0.12500000E+03</pdfrwt>
<pdfrwt beam="2">  1       21 0.17161007E+00 0.12500000E+03</pdfrwt>
<totfact> 0.20834444E+06</totfact>
</mgrwt>
</event>
<event>
 3      1 +1.7592000e+01 1.25000000e+02 7.54677100e-03 1.23506900e-01
       21 -1    0    0  502  501 +0.0000000000e+00 +0.0000000000e+00 +4.8939452552e+00 4.8939452552e+00 0.0000000000e+00 0.0000e+00 -1.0000e+00
       21 -1    0    0  501  502 -0.0000000000e+00 -0.0000000000e+00 -7.9818015860e+02 7.9818015860e+02 0.0000000000e+00 0.0000e+00 -1.0000e+00
       25  1    1    2    0    0 +0.0000000000e+00 +0.0000000000e+00 -7.9328621335e+02 8.0307410386e+02 1.2500000000e+02 0.0000e+00 0.0000e+00
<mgrwt>
<rscale>  0 0.12500000E+03</rscale>
<asrwt>0</asrwt>
<pdfrwt beam="1">  1       21 0.75291498E-03 0.12500000E+03</pdfrwt>
<pdfrwt beam="2">  1       21 0.12279689E+00 0.12500000E+03</pdfrwt>
<totfact> 0.29261225E+06</totfact>
</mgrwt>
</event>
<event>
 3      1 +1.7592000e+01 1.25000000e+02 7.54677100e-03 1.23506900e-01
       21 -1    0    0  502  501 +0.0000000000e+00 +0.0000000000e+00 +1.1641042521e+01 1.1641042521e+01 0.0000000000e+00 0.0000e+00 -1.0000e+00
       21 -1    0    0  501  502 -0.0000000000e+00 -0.0000000000e+00 -3.3555843413e+02 3.3555843413e+02 0.0000000000e+00 0.0000e+00 -1.0000e+00
       25  1    1    2    0    0 +0.0000000000e+00 +0.0000000000e+00 -3.2391739161e+02 3.4719947666e+02 1.2500000000e+02 0.0000e+00 0.0000e+00
<mgrwt>
<rscale>  0 0.12500000E+03</rscale>
<asrwt>0</asrwt>
<pdfrwt beam="1">  1       21 0.17909295E-02 0.12500000E+03</pdfrwt>
<pdfrwt beam="2">  1       21 0.51624377E-01 0.12500000E+03</pdfrwt>
<totfact> 0.51745924E+06</totfact>
</mgrwt>
</event>
<event>
 3      1 +1.7592000e+01 1.25000000e+02 7.54677100e-03 1.23506900e-01
       21 -1    0    0  502  501 +0.0000000000e+00 +0.0000000000e+00 +5.4731364441e+00 5.4731364441e+00 0.0000000000e+00 0.0000e+00 -1.0000e+00
       21 -1    0    0  501  502 -0.0000000000e+00 -0.0000000000e+00 -7.1371325015e+02 7.1371325015e+02 0.0000000000e+00 0.0000e+00 -1.0000e+00
       25  1    1    2    0    0 +0.0000000000e+00 +0.0000000000e+00 -7.0824011370e+02 7.1918638659e+02 1.2500000000e+02 0.0000e+00 0.0000e+00
<mgrwt>
<rscale>  0 0.12500000E+03</rscale>
<asrwt>0</asrwt>
<pdfrwt beam="1">  1       21 0.84202075E-03 0.12500000E+03</pdfrwt>
<pdfrwt beam="2">  1       21 0.10980207E+00 0.12500000E+03</pdfrwt>
<totfact> 0.32183436E+06</totfact>
</mgrwt>
</event>
<event>
 3      1 +1.7592000e+01 1.25000000e+02 7.54677100e-03 1.23506900e-01
       21 -1    0    0  502  501 +0.0000000000e+00 +0.0000000000e+00 +3.1230279196e+01 3.1230279196e+01 0.0000000000e+00 0.0000e+00 1.0000e+00
       21 -1    0    0  501  502 -0.0000000000e+00 -0.0000000000e+00 -1.2507893303e+02 1.2507893303e+02 0.0000000000e+00 0.0000e+00 1.0000e+00
       25  1    1    2    0    0 +0.0000000000e+00 +0.0000000000e+00 -9.3848653833e+01 1.5630921222e+02 1.2500000000e+02 0.0000e+00 0.0000e+00
<mgrwt>
<rscale>  0 0.12500000E+03</rscale>
<asrwt>0</asrwt>
<pdfrwt beam="1">  1       21 0.48046584E-02 0.12500000E+03</pdfrwt>
<pdfrwt beam="2">  1       21 0.19242913E-01 0.12500000E+03</pdfrwt>
<totfact> 0.69973305E+06</totfact>
</mgrwt>
</event>
<event>
 3      1 +1.7592000e+01 1.25000000e+02 7.54677100e-03 1.23506900e-01
       21 -1    0    0  502  501 +0.0000000000e+00 +0.0000000000e+00 +5.3768952630e+00 5.3768952630e+00 0.0000000000e+00 0.0000e+00 -1.0000e+00
       21 -1    0    0  501  502 -0.0000000000e+00 -0.0000000000e+00 -7.2648802124e+02 7.2648802124e+02 0.0000000000e+00 0.0000e+00 -1.0000e+00
       25  1    1    2    0    0 +0.0000000000e+00 +0.0000000000e+00 -7.2111112598e+02 7.3186491650e+02 1.2500000000e+02 0.0000e+00 0.0000e+00
<mgrwt>
<rscale>  0 0.12500000E+03</rscale>
<asrwt>0</asrwt>
<pdfrwt beam="1">  1       21 0.82721482E-03 0.12500000E+03</pdfrwt>
<pdfrwt beam="2">  1       21 0.11176737E+00 0.12500000E+03</pdfrwt>
<totfact> 0.31717224E+06</totfact>
</mgrwt>
</event>
<event>
 3      1 +1.7592000e+01 1.25000000e+02 7.54677100e-03 1.23506900e-01
       21 -1    0    0  502  501 +0.0000000000e+00 +0.0000000000e+00 +9.1777340207e+01 9.1777340207e+01 0.0000000000e+00 0.0000e+00 1.0000e+00
       21 -1    0    0  501  502 -0.0000000000e+00 -0.0000000000e+00 -4.2562248930e+01 4.2562248930e+01 0.0000000000e+00 0.0000e+00 1.0000e+00
       25  1    1    2    0    0 +0.0000000000e+00 +0.0000000000e+00 +4.9215091277e+01 1.3433958914e+02 1.2500000000e+02 0.0000e+00 0.0000e+00
<mgrwt>
<rscale>  0 0.12500000E+03</rscale>
<asrwt>0</asrwt>
<pdfrwt beam="1">  1       21 0.14119591E-01 0.12500000E+03</pdfrwt>
<pdfrwt beam="2">  1       21 0.65480383E-02 0.12500000E+03</pdfrwt>
<totfact> 0.72784034E+06</totfact>
</mgrwt>
</event>
<event>
 3      1 +1.7592000e+01 1.25000000e+02 7.54677100e-03 1.23506900e-01
       21 -1    0    0  502  501 +0.0000000000e+00 +0.0000000000e+00 +6.3905906108e+02 6.3905906108e+02 0.0000000000e+00 0.0000e+00 1.0000e+00
       21 -1    0    0  501  502 -0.0000000000e+00 -0.0000000000e+00 -6.1125023302e+00 6.1125023302e+00 0.0000000000e+00 0.0000e+00 1.0000e+00
       25  1    1    2    0    0 +0.0000000000e+00 +0.0000000000e+00 +6.3294655875e+02 6.4517156341e+02 1.2500000000e+02 0.0000e+00 0.0000e+00
<mgrwt>
<rscale>  0 0.12500000E+03</rscale>
<asrwt>0</asrwt>
<pdfrwt beam="1">  1       21 0.98316726E-01 0.12500000E+03</pdfrwt>
<pdfrwt beam="2">  1       21 0.94038548E-03 0.12500000E+03</pdfrwt>
<totfact> 0.35126158E+06</totfact>
</mgrwt>
</event>
<event>
 3      1 +1.7592000e+01 1.25000000e+02 7.54677100e-03 1.23506900e-01
       21 -1    0    0  502  501 +0.0000000000e+00 +0.0000000000e+00 +8.8861275381e+01 8.8861275381e+01 0.0000000000e+00 0.0000e+00 -1.0000e+00
       21 -1    0    0  501  502 -0.0000000000e+00 -0.0000000000e+00 -4.3958968440e+01 4.3958968440e+01 0.0000000000e+00 0.0000e+00 -1.0000e+00
       25  1    1    2    0    0 +0.0000000000e+00 +0.0000000000e+00 +4.4902306940e+01 1.3282024382e+02 1.2500000000e+02 0.0000e+00 0.0000e+00
<mgrwt>
<rscale>  0 0.12500000E+03</rscale>
<asrwt>0</asrwt>
<pdfrwt beam="1">  1       21 0.13670965E-01 0.12500000E+03</pdfrwt>
<pdfrwt beam="2">  1       21 0.67629183E-02 0.12500000E+03</pdfrwt>
<totfact> 0.72986411E+06</totfact>
</mgrwt>
</event>
<event>
 3      1 +1.7592000e+01 1.25000000e+02 7.54677100e-03 1.23506900e-01
       21 -1    0    0  502  501 +0.0000000000e+00 +0.0000000000e+00 +2.6200605828e+01 2.6200605828e+01 0.0000000000e+00 0.0000e+00 -1.0000e+00
       21 -1    0    0  501  502 -0.0000000000e+00 -0.0000000000e+00 -1.4909006401e+02 1.4909006401e+02 0.0000000000e+00 0.0000e+00 -1.0000e+00
       25  1    1    2    0    0 +0.0000000000e+00 +0.0000000000e+00 -1.2288945819e+02 1.7529066984e+02 1.2500000000e+02 0.0000e+00 0.0000e+00
<mgrwt>
<rscale>  0 0.12500000E+03</rscale>
<asrwt>0</asrwt>
<pdfrwt beam="1">  1       21 0.40308624E-02 0.12500000E+03</pdfrwt>
<pdfrwt beam="2">  1       21 0.22936933E-01 0.12500000E+03</pdfrwt>
<totfact> 0.67695925E+06</totfact>
</mgrwt>
</event>
<event>
 3      1 +1.7592000e+01 1.25000000e+02 7.54677100e-03 1.23506900e-01
       21 -1    0    0  502  501 +0.0000000000e+00 +0.0000000000e+00 +4.7450792460e+01 4.7450792460e+01 0.0000000000e+00 0.0000e+00 1.0000e+00
       21 -1    0    0  501  502 -0.0000000000e+00 -0.0000000000e+00 -8.2322123562e+01 8.2322123562e+01 0.0000000000e+00 0.0000e+00 1.0000e+00
       25  1    1    2    0    0 +0.0000000000e+00 +0.0000000000e+00 -3.4871331102e+01 1.2977291602e+02 1.2500000000e+02 0.0000e+00 0.0000e+00
<mgrwt>
<rscale>  0 0.12500000E+03</rscale>
<asrwt>0</asrwt>
<pdfrwt beam="1">  1       21 0.73001219E-02 0.12500000E+03</pdfrwt>
<pdfrwt beam="2">  1       21 0.12664942E-01 0.12500000E+03</pdfrwt>
<totfact> 0.73395280E+06</totfact>
</mgrwt>
</event>
<event>
 3      1 +1.7592000e+01 1.25000000e+02 7.54677100e-03 1.23506900e-01
       21 -1    0    0  502  501 +0.0000000000e+00 +0.0000000000e+00 +9.8638534367e+01 9.8638534367e+01 0.0000000000e+00 0.0000e+00 -1.0000e+00
       21 -1    0    0  501  502 -0.0000000000e+00 -0.0000000000e+00 -3.9601663032e+01 3.9601663032e+01 0.0000000000e+00 0.0000e+00 -1.0000e+00
       25  1    1    2    0    0 +0.0000000000e+00 +0.0000000000e+00 +5.9036871335e+01 1.3824019740e+02 1.2500000000e+02 0.0000e+00 0.0000e+00
<mgrwt>
<rscale>  0 0.12500000E+03</rscale>
<asrwt>0</asrwt>
<pdfrwt beam="1">  1       21 0.15175159E-01 0.12500000E+03</pdfrwt>
<pdfrwt beam="2">  1       21 0.60925636E-02 0.12500000E+03</pdfrwt>
<totfact> 0.72269888E+06</totfact>
</mgrwt>
</event>
<event>
 3      1 +1.7592000e+01 1.25000000e+02 7.54677100e-03 1.23506900e-01
       21 -1    0    0  502  501 +0.0000000000e+00 +0.0000000000e+00 +1.3642867757e+01 1.3642867757e+01 0.0000000000e+00 0.0000e+00 -1.0000e+00
       21 -1    0    0  501  502 -0.0000000000e+00 -0.0000000000e+00 -2.8632176678e+02 2.8632176678e+02 0.0000000000e+00 0.0000e+00 -1.0000e+00
       25  1    1    2    0    0 +0.0000000000e+00 +0.0000000000e+00 -2.7267889902e+02 2.9996463453e+02 1.2500000000e+02 0.0000e+00 0.0000e+00
<mgrwt>
<rscale>  0 0.12500000E+03</rscale>
<asrwt>0</asrwt>
<pdfrwt beam="1">  1       21 0.20989028E-02 0.12500000E+03</pdfrwt>
<pdfrwt beam="2">  1       21 0.44049501E-01 0.12500000E+03</pdfrwt>
<totfact> 0.55459113E+06</totfact>
</mgrwt>
</event>
<event>
 3      1 +1.7592000e+01 1.25000000e+02 7.54677100e-03 1.23506900e-01
       21 -1    0    0  502  501 +0.0000000000e+00 +0.0000000000e+00 +7.9724854621e+01 7.9724854621e+01 0.0000000000e+00 0.0000e+00 -1.0000e+00
       21 -1    0    0  501  502 -0.0000000000e+00 -0.0000000000e+00 -4.8996639988e+01 4.8996639988e+01 0.0000000000e+00 0.0000e+00 -1.0000e+00
       25  1    1    2    0    0 +0.0000000000e+00 +0.0000000000e+00 +3.0728214633e+01 1.2872149461e+02 1.2500000000e+02 0.0000e+00 0.0000e+00
<mgrwt>
<rscale>  0 0.12500000E+03</rscale>
<asrwt>0</asrwt>
<pdfrwt beam="1">  1       21 0.12265362E-01 0.12500000E+03</pdfrwt>
<pdfrwt beam="2">  1       21 0.75379446E-02 0.12500000E+03</pdfrwt>
<totfact> 0.73536312E+06</totfact>
</mgrwt>
</event>
<event>
 3      1 +1.7592000e+01 1.25000000e+02 7.54677100e-03 1.23506900e-01
       21 -1    0    0  502  501 +0.0000000000e+00 +0.0000000000e+00 +4.0255243402e+02 4.0255243402e+02 0.0000000000e+00 0.0000e+00 1.0000e+00
       21 -1    0    0  501  502 -0.0000000000e+00 -0.0000000000e+00 -9.7037048342e+00 9.7037048342e+00 0.0000000000e+00 0.0000e+00 1.0000e+00
       25  1    1    2    0    0 +0.0000000000e+00 +0.0000000000e+00 +3.9284872918e+02 4.1225613885e+02 1.2500000000e+02 0.0000e+00 0.0000e+00
<mgrwt>
<rscale>  0 0.12500000E+03</rscale>
<asrwt>0</asrwt>
<pdfrwt beam="1">  1       21 0.61931131E-01 0.12500000E+03</pdfrwt>
<pdfrwt beam="2">  1       21 0.14928780E-02 0.12500000E+03</pdfrwt>
<totfact> 0.47238905E+06</totfact>
</mgrwt>
</event>
<event>
 3      1 +1.7592000e+01 1.25000000e+02 7.54677100e-03 1.23506900e-01
       21 -1    0    0  502  501 +0.0000000000e+00 +0.0000000000e+00 +1.5293491700e+01 1.5293491700e+01 0.0000000000e+00 0.0000e+00 -1.0000e+00
       21 -1    0    0  501  502 -0.0000000000e+00 -0.0000000000e+00 -2.5541910746e+02 2.5541910746e+02 0.0000000000e+00 0.0000e+00 -1.0000e+00
       25  1    1    2    0    0 +0.0000000000e+00 +0.0000000000e+00 -2.4012561576e+02 2.7071259916e+02 1.2500000000e+02 0.0000e+00 0.0000e+00
<mgrwt>
<rscale>  0 0.12500000E+03</rscale>
<asrwt>0</asrwt>
<pdfrwt beam="1">  1       21 0.23528450E-02 0.12500000E+03</pdfrwt>
<pdfrwt beam="2">  1       21 0.39295246E-01 0.12500000E+03</pdfrwt>
<totfact> 0.57981099E+06</totfact>
</mgrwt>
</event>
<event>
 3      1 +1.7592000e+01 1.25000000e+02 7.54677100e-03 1.23506900e-01
       21 -1    0    0  502  501 +0.0000000000e+00 +0.0000000000e+00 +2.0559968844e+01 2.0559968844e+01 0.0000000000e+00 0.0000e+00 -1.0000e+00
       21 -1    0    0  501  502 -0.0000000000e+00 -0.0000000000e+00 -1.8999299219e+02 1.8999299219e+02 0.0000000000e+00 0.0000e+00 -1.0000e+00
       25  1    1    2    0    0 +0.0000000000e+00 +0.0000000000e+00 -1.6943302335e+02 2.1055296103e+02 1.2500000000e+02 0.0000e+00 0.0000e+00
<mgrwt>
<rscale>  0 0.12500000E+03</rscale>
<asrwt>0</asrwt>
<pdfrwt beam="1">  1       21 0.31630721E-02 0.12500000E+03</pdfrwt>
<pdfrwt beam="2">  1       21 0.29229691E-01 0.12500000E+03</pdfrwt>
<totfact> 0.63801405E+06</totfact>
</mgrwt>
</event>
<event>
 3      1 +1.7592000e+01 1.25000000e+02 7.54677100e-03 1.23506900e-01
       21 -1    0    0  502  501 +0.0000000000e+00 +0.0000000000e+00 +2.3610273391e+00 2.3610273391e+00 0.0000000000e+00 0.0000e+00 -1.0000e+00
       21 -1    0    0  501  502 -0.0000000000e+00 -0.0000000000e+00 -1.6544704652e+03 1.6544704652e+03 0.0000000000e+00 0.0000e+00 -1.0000e+00
       25  1    1    2    0    0 +0.0000000000e+00 +0.0000000000e+00 -1.6521094379e+03 1.6568314925e+03 1.2500000000e+02 0.0000e+00 0.0000e+00
<mgrwt>
<rscale>  0 0.12500000E+03</rscale>
<asrwt>0</asrwt>
<pdfrwt beam="1">  1       21 0.36323405E-03 0.12500000E+03</pdfrwt>
<pdfrwt beam="2">  1       21 0.25453457E+00 0.12500000E+03</pdfrwt>
<totfact> 0.11819015E+06</totfact>
</mgrwt>
</event>
<event>
 3      1 +1.7592000e+01 1.25000000e+02 7.54677100e-03 1.23506900e-01
       21 -1    0    0  502  501 +0.0000000000e+00 +0.0000000000e+00 +5.3067419332e+01 5.3067419332e+01 0.0000000000e+00 0.0000e+00 1.0000e+00
       21 -1    0    0  501  502 -0.0000000000e+00 -0.0000000000e+00 -7.3609194665e+01 7.3609194665e+01 0.0000000000e+00 0.0000e+00 1.0000e+00
       25  1    1    2    0    0 +0.0000000000e+00 +0.0000000000e+00 -2.0541775333e+01 1.2667661400e+02 1.2500000000e+02 0.0000e+00 0.0000e+00
<mgrwt>
<rscale>  0 0.12500000E+03</rscale>
<asrwt>0</asrwt>
<pdfrwt beam="1">  1       21 0.81642184E-02 0.12500000E+03</pdfrwt>
<pdfrwt beam="2">  1       21 0.11324491E-01 0.12500000E+03</pdfrwt>
<totfact> 0.73813228E+06</totfact>
</mgrwt>
</event>
<event>
 3      1 +1.7592000e+01 1.25000000e+02 7.54677100e-03 1.23506900e-01
       21 -1    0    0  502  501 +0.0000000000e+00 +0.0000000000e+00 +1.2178163089e+01 1.2178163089e+01 0.0000000000e+00 0.0000e+00 -1.0000e+00
       21 -1    0    0  501  502 -0.0000000000e+00 -0.0000000000e+00 -3.2075855541e+02 3.2075855541e+02 0.0000000000e+00 0.0000e+00 -1.0000e+00
       25  1    1    2    0    0 +0.0000000000e+00 +0.0000000000e+00 -3.0858039232e+02 3.3293671850e+02 1.2500000000e+02 0.0000e+00 0.0000e+00
<mgrwt>
<rscale>  0 0.12500000E+03</rscale>
<asrwt>0</asrwt>
<pdfrwt beam="1">  1       21 0.18735637E-02 0.12500000E+03</pdfrwt>
<pdfrwt beam="2">  1       21 0.49347466E-01 0.12500000E+03</pdfrwt>
<totfact> 0.52823838E+06</totfact>
</mgrwt>
</event>
<event>
 3      1 +1.7592000e+01 1.25000000e+02 7.54677100e-03 1.23506900e-01
       21 -1    0    0  502  501 +0.0000000000e+00 +0.0000000000e+00 +6.1968327709e+01 6.1968327709e+01 0.0000000000e+00 0.0000e+00 1.0000e+00
       21 -1    0    0  501  502 -0.0000000000e+00 -0.0000000000e+00 -6.3036233903e+01 6.3036233903e+01 0.0000000000e+00 0.0000e+00 1.0000e+00
       25  1    1    2    0    0 +0.0000000000e+00 +0.0000000000e+00 -1.0679061943e+00 1.2500456161e+02 1.2500000000e+02 0.0000e+00 0.0000e+00
<mgrwt>
<rscale>  0 0.12500000E+03</rscale>
<asrwt>0</asrwt>
<pdfrwt beam="1">  1       21 0.95335888E-02 0.12500000E+03</pdfrwt>
<pdfrwt beam="2">  1       21 0.96978822E-02 0.12500000E+03</pdfrwt>
<totfact> 0.74042965E+06</totfact>
</mgrwt>
</event>
<event>
 3      1 +1.7592000e+01 1.25000000e+02 7.54677100e-03 1.23506900e-01
       21 -1    0    0  502  501 +0.0000000000e+00 +0.0000000000e+00 +1.2382029788e+02 1.2382029788e+02 0.0000000000e+00 0.0000e+00 1.0000e+00
       21 -1    0    0  501  502 -0.0000000000e+00 -0.0000000000e+00 -3.1547735442e+01 3.1547735442e+01 0.0000000000e+00 0.0000e+00 1.0000e+00
       25  1    1    2    0    0 +0.0000000000e+00 +0.0000000000e+00 +9.2272562441e+01 1.5536803333e+02 1.2500000000e+02 0.0000e+00 0.0000e+00
<mgrwt>
<rscale>  0 0.12500000E+03</rscale>
<asrwt>0</asrwt>
<pdfrwt beam="1">  1       21 0.19049276E-01 0.12500000E+03</pdfrwt>
<pdfrwt beam="2">  1       21 0.48534978E-02 0.12500000E+03</pdfrwt>
<totfact> 0.70089946E+06</totfact>
</mgrwt>
</event>
<event>
 3      1 +1.7592000e+01 1.25000000e+02 7.54677100e-03 1.23506900e-01
       21 -1    0    0  502  501 +0.0000000000e+00 +0.0000000000e+00 +6.8917988655e+02 6.8917988655e+02 0.0000000000e+00 0.0000e+00 -1.0000e+00
       21 -1    0    0  501  502 -0.0000000000e+00 -0.0000000000e+00 -5.6679686628e+00 5.6679686628e+00 0.0000000000e+00 0.0000e+00 -1.0000e+00
       25  1    1    2    0    0 +0.0000000000e+00 +0.0000000000e+00 +6.8351191789e+02 6.9484785522e+02 1.2500000000e+02 0.0000e+00 0.0000e+00
<mgrwt>
<rscale>  0 0.12500000E+03</rscale>
<asrwt>0</asrwt>
<pdfrwt beam="1">  1       21 0.10602761E+00 0.12500000E+03</pdfrwt>
<pdfrwt beam="2">  1       21 0.87199573E-03 0.12500000E+03</pdfrwt>
<totfact> 0.33109737E+06</totfact>
</mgrwt>
</event>
<event>
 3      1 +1.7592000e+01 1.25000000e+02 7.54677100e-03 1.23506900e-01
       21 -1    0    0  502  501 +0.0000000000e+00 +0.0000000000e+00 +2.5204494937e+02 2.5204494937e+02 0.0000000000e+00 0.0000e+00 1.0000e+00
       21 -1    0    0  501  502 -0.0000000000e+00 -0.0000000000e+00 -1.5498227637e+01 1.5498227637e+01 0.0000000000e+00 0.0000e+00 1.0000e+00
       25  1    1    2    0    0 +0.0000000000e+00 +0.0000000000e+00 +2.3654672173e+02 2.6754317700e+02 1.2500000000e+02 0.0000e+00 0.0000e+00
<mgrwt>
<rscale>  0 0.12500000E+03</rscale>
<asrwt>0</asrwt>
<pdfrwt beam="1">  1       21 0.38776143E-01 0.12500000E+03</pdfrwt>
<pdfrwt beam="2">  1       21 0.23843429E-02 0.12500000E+03</pdfrwt>
<totfact> 0.58264724E+06</totfact>
</mgrwt>
</event>
<event>
 3      1 +1.7592000e+01 1.25000000e+02 7.54677100e-03 1.23506900e-01
       21 -1    0    0  502  501 +0.0000000000e+00 +0.0000000000e+00 +3.3351689924e+02 3.3351689924e+02 0.0000000000e+00 0.0000e+00 -1.0000e+00
       21 -1    0    0  501  502 -0.0000000000e+00 -0.0000000000e+00 -1.1712300063e+01 1.1712300063e+01 0.0000000000e+00 0.0000e+00 -1.0000e+00
       25  1    1    2    0    0 +0.0000000000e+00 +0.0000000000e+00 +3.2180459918e+02 3.4522919930e+02 1.2500000000e+02 0.0000e+00 0.0000e+00
<mgrwt>
<rscale>  0 0.12500000E+03</rscale>
<asrwt>0</asrwt>
<pdfrwt beam="1">  1       21 0.51310285E-01 0.12500000E+03</pdfrwt>
<pdfrwt beam="2">  1       21 0.18018926E-02 0.12500000E+03</pdfrwt>
<totfact> 0.51892713E+06</totfact>
</mgrwt>
</event>
<event>
 3      1 +1.7592000e+01 1.25000000e+02 7.54677100e-03 1.23506900e-01
       21 -1    0    0  502  501 +0.0000000000e+00 +0.0000000000e+00 +1.9941148828e+02 1.9941148828e+02 0.0000000000e+00 0.0000e+00 1.0000e+00
       21 -1    0    0  501  502 -0.0000000000e+00 -0.0000000000e+00 -1.9588891461e+01 1.9588891461e+01 0.0000000000e+00 0.0000e+00 1.0000e+00
       25  1    1    2    0    0 +0.0000000000e+00 +0.0000000000e+00 +1.7982259682e+02 2.1900037975e+02 1.2500000000e+02 0.0000e+00 0.0000e+00
<mgrwt>
<rscale>  0 0.12500000E+03</rscale>
<asrwt>0</asrwt>
<pdfrwt beam="1">  1       21 0.30678689E-01 0.12500000E+03</pdfrwt>
<pdfrwt beam="2">  1       21 0.30136757E-02 0.12500000E+03</pdfrwt>
<totfact> 0.62924857E+06</totfact>
</mgrwt>
</event>
<event>
 3      1 +1.7592000e+01 1.25000000e+02 7.54677100e-03 1.23506900e-01
       21 -1    0    0  502  501 +0.0000000000e+00 +0.0000000000e+00 +2.4076995530e+01 2.4076995530e+01 0.0000000000e+00 0.0000e+00 -1.0000e+00
       21 -1    0    0  501  502 -0.0000000000e+00 -0.0000000000e+00 -1.6223992712e+02 1.6223992712e+02 0.0000000000e+00 0.0000e+00 -1.0000e+00
       25  1    1    2    0    0 +0.0000000000e+00 +0.0000000000e+00 -1.3816293159e+02 1.8631692265e+02 1.2500000000e+02 0.0000e+00 0.0000e+00
<mgrwt>
<rscale>  0 0.12500000E+03</rscale>
<asrwt>0</asrwt>
<pdfrwt beam="1">  1       21 0.37041532E-02 0.12500000E+03</pdfrwt>
<pdfrwt beam="2">  1       21 0.24959989E-01 0.12500000E+03</pdfrwt>
<totfact> 0.66434163E+06</totfact>
</mgrwt>
</event>
<event>
 3      1 +1.7592000e+01 1.25000000e+02 7.54677100e-03 1.23506900e-01
       21 -1    0    0  502  501 +0.0000000000e+00 +0.0000000000e+00 +7.6831466941e+02 7.6831466941e+02 0.0000000000e+00 0.0000e+00 -1.0000e+00
       21 -1    0    0  501  502 -0.0000000000e+00 -0.0000000000e+00 -5.0841799012e+00 5.0841799012e+00 0.0000000000e+00 0.0000e+00 -1.0000e+00
       25  1    1    2    0    0 +0.0000000000e+00 +0.0000000000e+00 +7.6323048951e+02 7.7339884931e+02 1.2500000000e+02 0.0000e+00 0.0000e+00
<mgrwt>
<rscale>  0 0.12500000E+03</rscale>
<asrwt>0</asrwt>
<pdfrwt beam="1">  1       21 0.11820216E+00 0.12500000E+03</pdfrwt>
<pdfrwt beam="2">  1       21 0.78218213E-03 0.12500000E+03</pdfrwt>
<totfact> 0.30262449E+06</totfact>
</mgrwt>
</event>
<event>
 3      1 +1.7592000e+01 1.25000000e+02 7.54677100e-03 1.23506900e-01
       21 -1    0    0  502  501 +0.0000000000e+00 +0.0000000000e+00 +1.2145145566e+01 1.2145145566e+01 0.0000000000e+00 0.0000e+00 1.0000e+00
       21 -1    0    0  501  502 -0.0000000000e+00 -0.0000000000e+00 -3.2163056249e+02 3.2163056249e+02 0.0000000000e+00 0.0000e+00 1.0000e+00
       25  1    1    2    0    0 +0.0000000000e+00 +0.0000000000e+00 -3.0948541693e+02 3.3377570806e+02 1.2500000000e+02 0.0000e+00 0.0000e+00
<mgrwt>
<rscale>  0 0.12500000E+03</rscale>
<asrwt>0</asrwt>
<pdfrwt beam="1">  1       21 0.18684840E-02 0.12500000E+03</pdfrwt>
<pdfrwt beam="2">  1       21 0.49481623E-01 0.12500000E+03</pdfrwt>
<totfact> 0.52759430E+06</totfact>
</mgrwt>
</event>
<event>
 3      1 +1.7592000e+01 1.25000000e+02 7.54677100e-03 1.23506900e-01
       21 -1    0    0  502  501 +0.0000000000e+00 +0.0000000000e+00 +9.5289676871e+01 9.5289676871e+01 0.0000000000e+00 0.0000e+00 1.0000e+00
       21 -1    0    0  501  502 -0.0000000000e+00 -0.0000000000e+00 -4.0993422670e+01 4.0993422670e+01 0.0000000000e+00 0.0000e+00 1.0000e+00
       25  1    1    2    0    0 +0.0000000000e+00 +0.0000000000e+00 +5.4296254201e+01 1.3628309954e+02 1.2500000000e+02 0.0000e+00 0.0000e+00
<mgrwt>
<rscale>  0 0.12500000E+03</rscale>
<asrwt>0</asrwt>
<pdfrwt beam="1">  1       21 0.14659950E-01 0.12500000E+03</pdfrwt>
<pdfrwt beam="2">  1       21 0.63066804E-02 0.12500000E+03</pdfrwt>
<totfact> 0.72527024E+06</totfact>
</mgrwt>
</event>
<event>
 3      1 +1.7592000e+01 1.25000000e+02 7.54677100e-03 1.23506900e-01
       21 -1    0    0  502  501 +0.0000000000e+00 +0.0000000000e+00 +4.4260558420e+02 4.4260558420e+02 0.0000000000e+00 0.0000e+00 -1.0000e+00
       21 -1    0    0  501  502 -0.0000000000e+00 -0.0000000000e+00 -8.8255777593e+00 8.8255777593e+00 0.0000000000e+00 0.0000e+00 -1.0000e+00
       25  1    1    2    0    0 +0.0000000000e+00 +0.0000000000e+00 +4.3378000644e+02 4.5143116195e+02 1.2500000000e+02 0.0000e+00 0.0000e+00
<mgrwt>
<rscale>  0 0.12500000E+03</rscale>
<asrwt>0</asrwt>
<pdfrwt beam="1">  1       21 0.68093150E-01 0.12500000E+03</pdfrwt>
<pdfrwt beam="2">  1       21 0.13577815E-02 0.12500000E+03</pdfrwt>
<totfact> 0.44806762E+06</totfact>
</mgrwt>
</event>
<event>
 3      1 +1.7592000e+01 1.25000000e+02 7.54677100e-03 1.23506900e-01
       21 -1    0    0  502  501 +0.0000000000e+00 +0.0000000000e+00 +2.9644226677e+00 2.9644226677e+00 0.0000000000e+00 0.0000e+00 1.0000e+00
       21 -1    0    0  501  502 -0.0000000000e+00 -0.0000000000e+00 -1.3177102046e+03 1.3177102046e+03 0.0000000000e+00 0.0000e+00 1.0000e+00
       25  1    1    2    0    0 +0.0000000000e+00 +0.0000000000e+00 -1.3147457819e+03 1.3206746273e+03 1.2500000000e+02 0.0000e+00 0.0000e+00
<mgrwt>
<rscale>  0 0.12500000E+03</rscale>
<asrwt>0</asrwt>
<pdfrwt beam="1">  1       21 0.45606586E-03 0.12500000E+03</pdfrwt>
<pdfrwt beam="2">  1       21 0.20272428E+00 0.12500000E+03</pdfrwt>
<totfact> 0.16885207E+06</totfact>
</mgrwt>
</event>
<event>
 3      1 +1.7592000e+01 1.25000000e+02 7.54677100e-03 1.23506900e-01
       21 -1    0    0  502  501 +0.0000000000e+00 +0.0000000000e+00 +4.3962305016e+01 4.3962305016e+01 0.0000000000e+00 0.0000e+00 1.0000e+00
       21 -1    0    0  501  502 -0.0000000000e+00 -0.0000000000e+00 -8.8854531139e+01 8.8854531139e+01 0.0000000000e+00 0.0000e+00 1.0000e+00
       25  1    1    2    0    0 +0.0000000000e+00 +0.0000000000e+00 -4.4892226122e+01 1.3281683615e+02 1.2500000000e+02 0.0000e+00 0.0000e+00
<mgrwt>
<rscale>  0 0.12500000E+03</rscale>
<asrwt>0</asrwt>
<pdfrwt beam="1">  1       21 0.67634316E-02 0.12500000E+03</pdfrwt>
<pdfrwt beam="2">  1       21 0.13669928E-01 0.12500000E+03</pdfrwt>
<totfact> 0.72986867E+06</totfact>
</mgrwt>
</event>
<event>
 3      1 +1.7592000e+01 1.25000000e+02 7.54677100e-03 1.23506900e-01
       21 -1    0    0  502  501 +0.0000000000e+00 +0.0000000000e+00 +2.9174725692e+02 2.9174725692e+02 0.0000000000e+00 0.0000e+00 -1.0000e+00
       21 -1    0    0  501  502 -0.0000000000e+00 -0.0000000000e+00 -1.3389157592e+01 1.3389157592e+01 0.0000000000e+00 0.0000e+00 -1.0000e+00
       25  1    1    2    0    0 +0.0000000000e+00 +0.0000000000e+00 +2.7835809933e+02 3.0513641452e+02 1.2500000000e+02 0.0000e+00 0.0000e+00
<mgrwt>
<rscale>  0 0.12500000E+03</rscale>
<asrwt>0</asrwt>
<pdfrwt beam="1">  1       21 0.44884189E-01 0.12500000E+03</pdfrwt>
<pdfrwt beam="2">  1       21 0.20598706E-02 0.12500000E+03</pdfrwt>
<totfact> 0.55032003E+06</totfact>
</mgrwt>
</event>
<event>
 3      1 +1.7592000e+01 1.25000000e+02 7.54677100e-03 1.23506900e-01
       21 -1    0    0  502  501 +0.0000000000e+00 +0.0000000000e+00 +2.9875400329e+01 2.9875400329e+01 0.0000000000e+00 0.0000e+00 1.0000e+00
       21 -1    0    0  501  502 -0.0000000000e+00 -0.0000000000e+00 -1.3075138599e+02 1.3075138599e+02 0.0000000000e+00 0.0000e+00 1.0000e+00
       25  1    1    2    0    0 +0.0000000000e+00 +0.0000000000e+00 -1.0087598566e+02 1.6062678632e+02 1.2500000000e+02 0.0000e+00 0.0000e+00
<mgrwt>
<rscale>  0 0.12500000E+03</rscale>
<asrwt>0</asrwt>
<pdfrwt beam="1">  1       21 0.45962156E-02 0.12500000E+03</pdfrwt>
<pdfrwt beam="2">  1       21 0.20115597E-01 0.12500000E+03</pdfrwt>
<totfact> 0.69442991E+06</totfact>
</mgrwt>
</event>
<event>
 3      1 +1.7592000e+01 1.25000000e+02 7.54677100e-03 1.23506900e-01
       21 -1    0    0  502  501 +0.0000000000e+00 +0.0000000000e+00 +4.2961139922e+01 4.2961139922e+01 0.0000000000e+00 0.0000e+00 -1.0000e+00
       21 -1    0    0  501  502 -0.0000000000e+00 -0.0000000000e+00 -9.0925194423e+01 9.0925194423e+01 0.0000000000e+00 0.0000e+00 -1.0000e+00
       25  1    1    2    0    0 +0.0000000000e+00 +0.0000000000e+00 -4.7964054501e+01 1.3388633434e+02 1.2500000000e+02 0.0000e+00 0.0000e+00
<mgrwt>
<rscale>  0 0.12500000E+03</rscale>
<asrwt>0</asrwt>
<pdfrwt beam="1">  1       21 0.66094062E-02 0.12500000E+03</pdfrwt>
<pdfrwt beam="2">  1       21 0.13988491E-01 0.12500000E+03</pdfrwt>
<totfact> 0.72844270E+06</totfact>
</mgrwt>
</event>
<event>
 3      1 +1.7592000e+01 1.25000000e+02 7.54677100e-03 1.23506900e-01
       21 -1    0    0  502  501 +0.0000000000e+00 +0.0000000000e+00 +1.9400192304e+03 1.9400192304e+03 0.0000000000e+00 0.0000e+00 -1.0000e+00
       21 -1    0    0  501  502 -0.0000000000e+00 -0.0000000000e+00 -2.0135109688e+00 2.0135109688e+00 0.0000000000e+00 0.0000e+00 -1.0000e+00
       25  1    1    2    0    0 +0.0000000000e+00 +0.0000000000e+00 +1.9380057194e+03 1.9420327413e+03 1.2500000000e+02 0.0000e+00 0.0000e+00
<mgrwt>
<rscale>  0 0.12500000E+03</rscale>
<asrwt>0</asrwt>
<pdfrwt beam="1">  1       21 0.29846300E+00 0.12500000E+03</pdfrwt>
<pdfrwt beam="2">  1       21 0.30977247E-03 0.12500000E+03</pdfrwt>
<totfact> 0.85272786E+05</totfact>
</mgrwt>
</event>
<event>
 3      1 +1.7592000e+01 1.25000000e+02 7.54677100e-03 1.23506900e-01
       21 -1    0    0  502  501 +0.0000000000e+00 +0.0000000000e+00 +5.0984702039e+00 5.0984702039e+00 0.0000000000e+00 0.0000e+00 1.0000e+00
       21 -1    0    0  501  502 -0.0000000000e+00 -0.0000000000e+00 -7.6616119028e+02 7.6616119028e+02 0.0000000000e+00 0.0000e+00 1.0000e+00
       25  1    1    2    0    0 +0.0000000000e+00 +0.0000000000e+00 -7.6106272007e+02 7.7125966048e+02 1.2500000000e+02 0.0000e+00 0.0000e+00
<mgrwt>
<rscale>  0 0.12500000E+03</rscale>
<asrwt>0</asrwt>
<pdfrwt beam="1">  1       21 0.78437968E-03 0.12500000E+03</pdfrwt>
<pdfrwt beam="2">  1       21 0.11787100E+00 0.12500000E+03</pdfrwt>
<totfact> 0.30334817E+06</totfact>
</mgrwt>
</event>
<event>
 3      1 +1.7592000e+01 1.25000000e+02 7.54677100e-03 1.23506900e-01
       21 -1    0    0  502  501 +0.0000000000e+00 +0.0000000000e+00 +2.2299886249e+01 2.2299886249e+01 0.0000000000e+00 0.0000e+00 1.0000e+00
       21 -1    0    0  501  502 -0.0000000000e+00 -0.0000000000e+00 -1.7516905496e+02 1.7516905496e+02 0.0000000000e+00 0.0000e+00 1.0000e+00
       25  1    1    2    0    0 +0.0000000000e+00 +0.0000000000e+00 -1.5286916871e+02 1.9746894121e+02 1.2500000000e+02 0.0000e+00 0.0000e+00
<mgrwt>
<rscale>  0 0.12500000E+03</rscale>
<asrwt>0</asrwt>
<pdfrwt beam="1">  1       21 0.34307516E-02 0.12500000E+03</pdfrwt>
<pdfrwt beam="2">  1       21 0.26949087E-01 0.12500000E+03</pdfrwt>
<totfact> 0.65201812E+06</totfact>
</mgrwt>
</event>
<event>
 3      1 +1.7592000e+01 1.25000000e+02 7.54677100e-03 1.23506900e-01
       21 -1    0    0  502  501 +0.0000000000e+00 +0.0000000000e+00 +3.0922395134e+02 3.0922395134e+02 0.0000000000e+00 0.0000e+00 -1.0000e+00
       21 -1    0    0  501  502 -0.0000000000e+00 -0.0000000000e+00 -1.2632430260e+01 1.2632430260e+01 0.0000000000e+00 0.0000e+00 -1.0000e+00
       25  1    1    2    0    0 +0.0000000000e+00 +0.0000000000e+00 +2.9659152108e+02 3.2185638160e+02 1.2500000000e+02 0.0000e+00 0.0000e+00
<mgrwt>
<rscale>  0 0.12500000E+03</rscale>
<asrwt>0</asrwt>
<pdfrwt beam="1">  1       21 0.47572910E-01 0.12500000E+03</pdfrwt>
<pdfrwt beam="2">  1       21 0.19434510E-02 0.12500000E+03</pdfrwt>
<totfact> 0.53686564E+06</totfact>
</mgrwt>
</event>
<event>
 3      1 +1.7592000e+01 1.25000000e+02 7.54677100e-03 1.23506900e-01
       21 -1    0    0  502  501 +0.0000000000e+00 +0.0000000000e+00 +3.9637504128e+02 3.9637504128e+02 0.0000000000e+00 0.0000e+00 1.0000e+00
       21 -1    0    0  501  502 -0.0000000000e+00 -0.0000000000e+00 -9.8549343253e+00 9.8549343253e+00 0.0000000000e+00 0.0000e+00 1.0000e+00
       25  1    1    2    0    0 +0.0000000000e+00 +0.0000000000e+00 +3.8652010695e+02 4.0622997560e+02 1.2500000000e+02 0.0000e+00 0.0000e+00
<mgrwt>
<rscale>  0 0.12500000E+03</rscale>
<asrwt>0</asrwt>
<pdfrwt beam="1">  1       21 0.60980763E-01 0.12500000E+03</pdfrwt>
<pdfrwt beam="2">  1       21 0.15161440E-02 0.12500000E+03</pdfrwt>
<totfact> 0.47630855E+06</totfact>
</mgrwt>
</event>
<event>
 3      1 +1.7592000e+01 1.25000000e+02 7.54677100e-03 1.23506900e-01
       21 -1    0    0  502  501 +0.0000000000e+00 +0.0000000000e+00 +1.1392767639e+01 1.1392767639e+01 0.0000000000e+00 0.0000e+00 -1.0000e+00
       21 -1    0    0  501  502 -0.0000000000e+00 -0.0000000000e+00 -3.4287103220e+02 3.4287103220e+02 0.0000000000e+00 0.0000e+00 -1.0000e+00
       25  1    1    2    0    0 +0.0000000000e+00 +0.0000000000e+00 -3.3147826456e+02 3.5426379984e+02 1.2500000000e+02 0.0000e+00 0.0000e+00
<mgrwt>
<rscale>  0 0.12500000E+03</rscale>
<asrwt>0</asrwt>
<pdfrwt beam="1">  1       21 0.17527335E-02 0.12500000E+03</pdfrwt>
<pdfrwt beam="2">  1       21 0.52749390E-01 0.12500000E+03</pdfrwt>
<totfact> 0.51225072E+06</totfact>
</mgrwt>
</event>
<event>
 3      1 +1.7592000e+01 1.25000000e+02 7.54677100e-03 1.23506900e-01
       21 -1    0    0  502  501 +0.0000000000e+00 +0.0000000000e+00 +1.9004822245e+01 1.9004822245e+01 0.0000000000e+00 0.0000e+00 1.0000e+00
       21 -1    0    0  501  502 -0.0000000000e+00 -0.0000000000e+00 -2.0553993874e+02 2.0553993874e+02 0.0000000000e+00 0.0000e+00 1.0000e+00
       25  1    1    2    0    0 +0.0000000000e+00 +0.0000000000e+00 -1.8653511650e+02 2.2454476099e+02 1.2500000000e+02 0.0000e+00 0.0000e+00
<mgrwt>
<rscale>  0 0.12500000E+03</rscale>
<asrwt>0</asrwt>
<pdfrwt beam="1">  1       21 0.29238188E-02 0.12500000E+03</pdfrwt>
<pdfrwt beam="2">  1       21 0.31621529E-01 0.12500000E+03</pdfrwt>
<totfact> 0.62360998E+06</totfact>
</mgrwt>
</event>
<event>
 3      1 +1.7592000e+01 1.25000000e+02 7.54677100e-03 1.23506900e-01
       21 -1    0    0  502  501 +0.0000000000e+00 +0.0000000000e+00 +7.5578662777e+02 7.5578662777e+02 0.0000000000e+00 0.0000e+00 -1.0000e+00
       21 -1    0    0  501  502 -0.0000000000e+00 -0.0000000000e+00 -5.1684560913e+00 5.1684560913e+00 0.0000000000e+00 0.0000e+00 -1.0000e+00
       25  1    1    2    0    0 +0.0000000000e+00 +0.0000000000e+00 +7.5061817168e+02 7.6095508386e+02 1.2500000000e+02 0.0000e+00 0.0000e+00
<mgrwt>
<rscale>  0 0.12500000E+03</rscale>
<asrwt>0</asrwt>
<pdfrwt beam="1">  1       21 0.11627478E+00 0.12500000E+03</pdfrwt>
<pdfrwt beam="2">  1       21 0.79514769E-03 0.12500000E+03</pdfrwt>
<totfact> 0.30687271E+06</totfact>
</mgrwt>
</event>
<event>
 3      1 +1.7592000e+01 1.25000000e+02 7.54677100e-03 1.23506900e-01
       21 -1    0    0  502  501 +0.0000000000e+00 +0.0000000000e+00 +2.8089709589e+00 2.8089709589e+00 0.0000000000e+00 0.0000e+00 -1.0000e+00
       21 -1    0    0  501  502 -0.0000000000e+00 -0.0000000000e+00 -1.3906338147e+03 1.3906338147e+03 0.0000000000e+00 0.0000e+00 -1.0000e+00
       25  1    1    2    0    0 +0.0000000000e+00 +0.0000000000e+00 -1.3878248438e+03 1.3934427857e+03 1.2500000000e+02 0.0000e+00 0.0000e+00
<mgrwt>
<rscale>  0 0.12500000E+03</rscale>
<asrwt>0</asrwt>
<pdfrwt beam="1">  1       21 0.43214840E-03 0.12500000E+03</pdfrwt>
<pdfrwt beam="2">  1       21 0.21394415E+00 0.12500000E+03</pdfrwt>
<totfact> 0.15651792E+06</totfact>
</mgrwt>
</event>
<event>
 3      1 +1.7592000e+01 1.25000000e+02 7.54677100e-03 1.23506900e-01
       21 -1    0    0  502  501 +0.0000000000e+00 +0.0000000000e+00 +7.6399436309e+02 7.6399436309e+02 0.0000000000e+00 0.0000e+00 1.0000e+00
       21 -1    0    0  501  502 -0.0000000000e+00 -0.0000000000e+00 -5.1129303942e+00 5.1129303942e+00 0.0000000000e+00 0.0000e+00 1.0000e+00
       25  1    1    2    0    0 +0.0000000000e+00 +0.0000000000e+00 +7.5888143269e+02 7.6910729348e+02 1.2500000000e+02 0.0000e+00 0.0000e+00
<mgrwt>
<rscale>  0 0.12500000E+03</rscale>
<asrwt>0</asrwt>
<pdfrwt beam="1">  1       21 0.11753750E+00 0.12500000E+03</pdfrwt>
<pdfrwt beam="2">  1       21 0.78660528E-03 0.12500000E+03</pdfrwt>
<totfact> 0.30407955E+06</totfact>
</mgrwt>
</event>
<event>
 3      1 +1.7592000e+01 1.25000000e+02 7.54677100e-03 1.23506900e-01
       21 -1    0    0  502  501 +0.0000000000e+00 +0.0000000000e+00 +3.0474795766e+01 3.0474795766e+01 0.0000000000e+00 0.0000e+00 -1.0000e+00
       21 -1    0    0  501  502 -0.0000000000e+00 -0.0000000000e+00 -1.2817969413e+02 1.2817969413e+02 0.0000000000e+00 0.0000e+00 -1.0000e+00
       25  1    1    2    0    0 +0.0000000000e+00 +0.0000000000e+00 -9.7704898368e+01 1.5865448990e+02 1.2500000000e+02 0.0000e+00 0.0000e+00
<mgrwt>
<rscale>  0 0.12500000E+03</rscale>
<asrwt>0</asrwt>
<pdfrwt beam="1">  1       21 0.46884299E-02 0.12500000E+03</pdfrwt>
<pdfrwt beam="2">  1       21 0.19719954E-01 0.12500000E+03</pdfrwt>
<totfact> 0.69684277E+06</totfact>
</mgrwt>
</event>
<event>
 3      1 +1.7592000e+01 1.25000000e+02 7.54677100e-03 1.23506900e-01
       21 -1    0    0  502  501 +0.0000000000e+00 +0.0000000000e+00 +2.9421507219e+03 2.9421507219e+03 0.0000000000e+00 0.0000e+00 1.0000e+00
       21 -1    0    0  501  502 -0.0000000000e+00 -0.0000000000e+00 -1.3276852103e+00 1.3276852103e+00 0.0000000000e+00 0.0000e+00 1.0000e+00
       25  1    1    2    0    0 +0.0000000000e+00 +0.0000000000e+00 +2.9408230367e+03 2.9434784071e+03 1.2500000000e+02 0.0000e+00 0.0000e+00
<mgrwt>
<rscale>  0 0.12500000E+03</rscale>
<asrwt>0</asrwt>
<pdfrwt beam="1">  1       21 0.45263335E+00 0.12500000E+03</pdfrwt>
<pdfrwt beam="2">  1       21 0.20426162E-03 0.12500000E+03</pdfrwt>
<totfact> 0.19258628E+05</totfact>
</mgrwt>
</event>
<event>
 3      1 +1.7592000e+01 1.25000000e+02 7.54677100e-03 1.23506900e-01
       21 -1    0    0  502  501 +0.0000000000e+00 +0.0000000000e+00 +1.8426070602e+01 1.8426070602e+01 0.0000000000e+00 0.0000e+00 1.0000e+00
       21 -1    0    0  501  502 -0.0000000000e+00 -0.0000000000e+00 -2.1199582290e+02 2.1199582290e+02 0.0000000000e+00 0.0000e+00 1.0000e+00
       25  1    1    2    0    0 +0.0000000000e+00 +0.0000000000e+00 -1.9356975229e+02 2.3042189350e+02 1.2500000000e+02 0.0000e+00 0.0000e+00
<mgrwt>
<rscale>  0 0.12500000E+03</rscale>
<asrwt>0</asrwt>
<pdfrwt beam="1">  1       21 0.28347800E-02 0.12500000E+03</pdfrwt>
<pdfrwt beam="2">  1       21 0.32614744E-01 0.12500000E+03</pdfrwt>
<totfact> 0.61772018E+06</totfact>
</mgrwt>
</event>
<event>
 3      1 +1.7592000e+01 1.25000000e+02 7.54677100e-03 1.23506900e-01
       21 -1    0    0  502  501 +0.0000000000e+00 +0.0000000000e+00 +1.1340181485e+02 1.1340181485e+02 0.0000000000e+00 0.0000e+00 1.0000e+00
       21 -1    0    0  501  502 -0.0000000000e+00 -0.0000000000e+00 -3.4446097757e+01 3.4446097757e+01 0.0000000000e+00 0.0000e+00 1.0000e+00
       25  1    1    2    0    0 +0.0000000000e+00 +0.0000000000e+00 +7.8955717088e+01 1.4784791260e+02 1.2500000000e+02 0.0000e+00 0.0000e+00
<mgrwt>
<rscale>  0 0.12500000E+03</rscale>
<asrwt>0</asrwt>
<pdfrwt beam="1">  1       21 0.17446433E-01 0.12500000E+03</pdfrwt>
<pdfrwt beam="2">  1       21 0.52993997E-02 0.12500000E+03</pdfrwt>
<totfact> 0.71030600E+06</totfact>
</mgrwt>
</event>
<event>
 3      1 +1.7592000e+01 1.25000000e+02 7.54677100e-03 1.23506900e-01
       21 -1    0    0  502  501 +0.0000000000e+00 +0.0000000000e+00 +5.4327553966e+02 5.4327553966e+02 0.0000000000e+00 0.0000e+00 -1.0000e+00
       21 -1    0    0  501  502 -0.0000000000e+00 -0.0000000000e+00 -7.1901819884e+00 7.1901819884e+00 0.0000000000e+00 0.0000e+00 -1.0000e+00
       25  1    1    2    0    0 +0.0000000000e+00 +0.0000000000e+00 +5.3608535767e+02 5.5046572165e+02 1.2500000000e+02 0.0000e+00 0.0000e+00
<mgrwt>
<rscale>  0 0.12500000E+03</rscale>
<asrwt>0</asrwt>
<pdfrwt beam="1">  1       21 0.83580820E-01 0.12500000E+03</pdfrwt>
<pdfrwt beam="2">  1       21 0.11061823E-02 0.12500000E+03</pdfrwt>
<totfact> 0.39433083E+06</totfact>
</mgrwt>
</event>
<event>
 3      1 +1.7592000e+01 1.25000000e+02 7.54677100e-03 1.23506900e-01
       21 -1    0    0  502  501 +0.0000000000e+00 +0.0000000000e+00 +1.1091369811e+01 1.1091369811e+01 0.0000000000e+00 0.0000e+00 -1.0000e+00
       21 -1    0    0  501  502 -0.0000000000e+00 -0.0000000000e+00 -3.5218823883e+02 3.5218823883e+02 0.0000000000e+00 0.0000e+00 -1.0000e+00
       25  1    1    2    0    0 +0.0000000000e+00 +0.0000000000e+00 -3.4109686902e+02 3.6327960865e+02 1.2500000000e+02 0.0000e+00 0.0000e+00
<mgrwt>
<rscale>  0 0.12500000E+03</rscale>
<asrwt>0</asrwt>
<pdfrwt beam="1">  1       21 0.17063646E-02 0.12500000E+03</pdfrwt>
<pdfrwt beam="2">  1       21 0.54182807E-01 0.12500000E+03</pdfrwt>
<totfact> 0.50572401E+06</totfact>
</mgrwt>
</event>
<event>
 3      1 +1.7592000e+01 1.25000000e+02 7.54677100e-03 1.23506900e-01
       21 -1    0    0  502  501 +0.0000000000e+00 +0.0000000000e+00 +5.4685385835e+01 5.4685385835e+01 0.0000000000e+00 0.0000e+00 -1.0000e+00
       21 -1    0    0  501  502 -0.0000000000e+00 -0.0000000000e+00 -7.1431332894e+01 7.1431332894e+01 0.0000000000e+00 0.0000e+00 -1.0000e+00
       25  1    1    2    0    0 +0.0000000000e+00 +0.0000000000e+00 -1.6745947059e+01 1.2611671873e+02 1.2500000000e+02 0.0000e+00 0.0000e+00
<mgrwt>
<rscale>  0 0.12500000E+03</rscale>
<asrwt>0</asrwt>
<pdfrwt beam="1">  1       21 0.84131363E-02 0.12500000E+03</pdfrwt>
<pdfrwt beam="2">  1       21 0.10989436E-01 0.12500000E+03</pdfrwt>
<totfact> 0.73889962E+06</totfact>
</mgrwt>
</event>
<event>
 3      1 +1.7592000e+01 1.25000000e+02 7.54677100e-03 1.23506900e-01
       21 -1    0    0  502  501 +0.0000000000e+00 +0.0000000000e+00 +1.4258663758e+02 1.4258663758e+02 0.0000000000e+00 0.0000e+00 1.0000e+00
       21 -1    0    0  501  502 -0.0000000000e+00 -0.0000000000e+00 -2.7395624627e+01 2.7395624627e+01 0.0000000000e+00 0.0000e+00 1.0000e+00
       25  1    1    2    0    0 +0.0000000000e+00 +0.0000000000e+00 +1.1519101295e+02 1.6998226221e+02 1.2500000000e+02 0.0000e+00 0.0000e+00
<mgrwt>
<rscale>  0 0.12500000E+03</rscale>
<asrwt>0</asrwt>
<pdfrwt beam="1">  1       21 0.21936405E-01 0.12500000E+03</pdfrwt>
<pdfrwt beam="2">  1       21 0.42147116E-02 0.12500000E+03</pdfrwt>
<totfact> 0.68319738E+06</totfact>
</mgrwt>
</event>
<event>
 3      1 +1.7592000e+01 1.25000000e+02 7.54677100e-03 1.23506900e-01
       21 -1    0    0  502  501 +0.0000000000e+00 +0.0000000000e+00 +5.1336696789e+02 5.1336696789e+02 0.0000000000e+00 0.0000e+00 -1.0000e+00
       21 -1    0    0  501  502 -0.0000000000e+00 -0.0000000000e+00 -7.6090793609e+00 7.6090793609e+00 0.0000000000e+00 0.0000e+00 -1.0000e+00
       25  1    1    2    0    0 +0.0000000000e+00 +0.0000000000e+00 +5.0575788853e+02 5.2097604726e+02 1.2500000000e+02 0.0000e+00 0.0000e+00
<mgrwt>
<rscale>  0 0.12500000E+03</rscale>
<asrwt>0</asrwt>
<pdfrwt beam="1">  1       21 0.78979506E-01 0.12500000E+03</pdfrwt>
<pdfrwt beam="2">  1       21 0.11706280E-02 0.12500000E+03</pdfrwt>
<totfact> 0.40928880E+06</totfact>
</mgrwt>
</event>
<event>
 3      1 +1.7592000e+01 1.25000000e+02 7.54677100e-03 1.23506900e-01
       21 -1    0    0  502  501 +0.0000000000e+00 +0.0000000000e+00 +2.0969359958e+02 2.0969359958e+02 0.0000000000e+00 0.0000e+00 1.0000e+00
       21 -1    0    0  501  502 -0.0000000000e+00 -0.0000000000e+00 -1.8628370193e+01 1.8628370193e+01 0.0000000000e+00 0.0000e+00 1.0000e+00
       25  1    1    2    0    0 +0.0000000000e+00 +0.0000000000e+00 +1.9106522939e+02 2.2832196977e+02 1.2500000000e+02 0.0000e+00 0.0000e+00
<mgrwt>
<rscale>  0 0.12500000E+03</rscale>
<asrwt>0</asrwt>
<pdfrwt beam="1">  1       21 0.32260552E-01 0.12500000E+03</pdfrwt>
<pdfrwt beam="2">  1       21 0.28659032E-02 0.12500000E+03</pdfrwt>
<totfact> 0.61981371E+06</totfact>
</mgrwt>
</event>
<event>
 3      1 +1.7592000e+01 1.25000000e+02 7.54677100e-03 1.23506900e-01
       21 -1    0    0  502  501 +0.0000000000e+00 +0.0000000000e+00 +2.1853706391e+01 2.1853706391e+01 0.0000000000e+00 0.0000e+00 -1.0000e+00
       21 -1    0    0  501  502 -0.0000000000e+00 -0.0000000000e+00 -1.7874542332e+02 1.7874542332e+02 0.0000000000e+00 0.0000e+00 -1.0000e+00
       25  1    1    2    0    0 +0.0000000000e+00 +0.0000000000e+00 -1.5689171693e+02 2.0059912971e+02 1.2500000000e+02 0.0000e+00 0.0000e+00
<mgrwt>
<rscale>  0 0.12500000E+03</rscale>
<asrwt>0</asrwt>
<pdfrwt beam="1">  1       21 0.33621088E-02 0.12500000E+03</pdfrwt>
<pdfrwt beam="2">  1       21 0.27499295E-01 0.12500000E+03</pdfrwt>
<totfact> 0.64862391E+06</totfact>
</mgrwt>
</event>
<event>
 3      1 +1.7592000e+01 1.25000000e+02 7.54677100e-03 1.23506900e-01
       21 -1    0    0  502  501 +0.0000000000e+00 +0.0000000000e+00 +1.7201233821e+01 1.7201233821e+01 0.0000000000e+00 0.0000e+00 1.0000e+00
       21 -1    0    0  501  502 -0.0000000000e+00 -0.0000000000e+00 -2.2709126803e+02 2.2709126803e+02 0.0000000000e+00 0.0000e+00 1.0000e+00
       25  1    1    2    0    0 +0.0000000000e+00 +0.0000000000e+00 -2.0989003421e+02 2.4429250185e+02 1.2500000000e+02 0.0000e+00 0.0000e+00
<mgrwt>
<rscale>  0 0.12500000E+03</rscale>
<asrwt>0</asrwt>
<pdfrwt beam="1">  1       21 0.26463438E-02 0.12500000E+03</pdfrwt>
<pdfrwt beam="2">  1       21 0.34937116E-01 0.12500000E+03</pdfrwt>
<totfact> 0.60419743E+06</totfact>
</mgrwt>
</event>
<event>
 3      1 +1.7592000e+01 1.25000000e+02 7.54677100e-03 1.23506900e-01
       21 -1    0    0  502  501 +0.0000000000e+00 +0.0000000000e+00 +7.6363742018e+02 7.6363742018e+02 0.0000000000e+00 0.0000e+00 -1.0000e+00
       21 -1    0    0  501  502 -0.0000000000e+00 -0.0000000000e+00 -5.1153203036e+00 5.1153203036e+00 0.0000000000e+00 0.0000e+00 -1.0000e+00
       25  1    1    2    0    0 +0.0000000000e+00 +0.0000000000e+00 +7.5852209987e+02 7.6875274048e+02 1.2500000000e+02 0.0000e+00 0.0000e+00
<mgrwt>
<rscale>  0 0.12500000E+03</rscale>
<asrwt>0</asrwt>
<pdfrwt beam="1">  1       21 0.11748259E+00 0.12500000E+03</pdfrwt>
<pdfrwt beam="2">  1       21 0.78697296E-03 0.12500000E+03</pdfrwt>
<totfact> 0.30420023E+06</totfact>
</mgrwt>
</event>
<event>
 3      1 +1.7592000e+01 1.25000000e+02 7.54677100e-03 1.23506900e-01
       21 -1    0    0  502  501 +0.0000000000e+00 +0.0000000000e+00 +1.2581755965e+02 1.2581755965e+02 0.0000000000e+00 0.0000e+00 -1.0000e+00
       21 -1    0    0  501  502 -0.0000000000e+00 -0.0000000000e+00 -3.1046938208e+01 3.1046938208e+01 0.0000000000e+00 0.0000e+00 -1.0000e+00
       25  1    1    2    0    0 +0.0000000000e+00 +0.0000000000e+00 +9.4770621444e+01 1.5686449786e+02 1.2500000000e+02 0.0000e+00 0.0000e+00
<mgrwt>
<rscale>  0 0.12500000E+03</rscale>
<asrwt>0</asrwt>
<pdfrwt beam="1">  1       21 0.19356547E-01 0.12500000E+03</pdfrwt>
<pdfrwt beam="2">  1       21 0.47764521E-02 0.12500000E+03</pdfrwt>
<totfact> 0.69904664E+06</totfact>
</mgrwt>
</event>
<event>
 3      1 +1.7592000e+01 1.25000000e+02 7.54677100e-03 1.23506900e-01
       21 -1    0    0  502  501 +0.0000000000e+00 +0.0000000000e+00 +4.9694429739e+01 4.9694429739e+01 0.0000000000e+00 0.0000e+00 -1.0000e+00
       21 -1    0    0  501  502 -0.0000000000e+00 -0.0000000000e+00 -7.8605389386e+01 7.8605389386e+01 0.0000000000e+00 0.0000e+00 -1.0000e+00
       25  1    1    2    0    0 +0.0000000000e+00 +0.0000000000e+00 -2.8910959647e+01 1.2829981913e+02 1.2500000000e+02 0.0000e+00 0.0000e+00
<mgrwt>
<rscale>  0 0.12500000E+03</rscale>
<asrwt>0</asrwt>
<pdfrwt beam="1">  1       21 0.76452969E-02 0.12500000E+03</pdfrwt>
<pdfrwt beam="2">  1       21 0.12093137E-01 0.12500000E+03</pdfrwt>
<totfact> 0.73593096E+06</totfact>
</mgrwt>
</event>
<event>
 3      1 +1.7592000e+01 1.25000000e+02 7.54677100e-03 1.23506900e-01
       21 -1    0    0  502  501 +0.0000000000e+00 +0.0000000000e+00 +7.1417667860e+02 7.1417667860e+02 0.0000000000e+00 0.0000e+00 -1.0000e+00
       21 -1    0    0  501  502 -0.0000000000e+00 -0.0000000000e+00 -5.4695849319e+00 5.4695849319e+00 0.0000000000e+00 0.0000e+00 -1.0000e+00
       25  1    1    2    0    0 +0.0000000000e+00 +0.0000000000e+00 +7.0870709366e+02 7.1964626353e+02 1.2500000000e+02 0.0000e+00 0.0000e+00
<mgrwt>
<rscale>  0 0.12500000E+03</rscale>
<asrwt>0</asrwt>
<pdfrwt beam="1">  1       21 0.10987326E+00 0.12500000E+03</pdfrwt>
<pdfrwt beam="2">  1       21 0.84147517E-03 0.12500000E+03</pdfrwt>
<totfact> 0.32166358E+06</totfact>
</mgrwt>
</event>
<event>
 3      1 +1.7592000e+01 1.25000000e+02 7.54677100e-03 1.23506900e-01
       21 -1    0    0  502  501 +0.0000000000e+00 +0.0000000000e+00 +1.7572031968e+02 1.7572031968e+02 0.0000000000e+00 0.0000e+00 -1.0000e+00
       21 -1    0    0  501  502 -0.0000000000e+00 -0.0000000000e+00 -2.2229927690e+01 2.2229927690e+01 0.0000000000e+00 0.0000e+00 -1.0000e+00
       25  1    1    2    0    0 +0.0000000000e+00 +0.0000000000e+00 +1.5349039199e+02 1.9795024737e+02 1.2500000000e+02 0.0000e+00 0.0000e+00
<mgrwt>
<rscale>  0 0.12500000E+03</rscale>
<asrwt>0</asrwt>
<pdfrwt beam="1">  1       21 0.27033894E-01 0.12500000E+03</pdfrwt>
<pdfrwt beam="2">  1       21 0.34199890E-02 0.12500000E+03</pdfrwt>
<totfact> 0.65149565E+06</totfact>
</mgrwt>
</event>
<event>
 3      1 +1.7592000e+01 1.25000000e+02 7.54677100e-03 1.23506900e-01
       21 -1    0    0  502  501 +0.0000000000e+00 +0.0000000000e+00 +9.3010961347e+00 9.3010961347e+00 0.0000000000e+00 0.0000e+00 1.0000e+00
       21 -1    0    0  501  502 -0.0000000000e+00 -0.0000000000e+00 -4.1997738153e+02 4.1997738153e+02 0.0000000000e+00 0.0000e+00 1.0000e+00
       25  1    1    2    0    0 +0.0000000000e+00 +0.0000000000e+00 -4.1067628539e+02 4.2927847766e+02 1.2500000000e+02 0.0000e+00 0.0000e+00
<mgrwt>
<rscale>  0 0.12500000E+03</rscale>
<asrwt>0</asrwt>
<pdfrwt beam="1">  1       21 0.14309380E-02 0.12500000E+03</pdfrwt>
<pdfrwt beam="2">  1       21 0.64611898E-01 0.12500000E+03</pdfrwt>
<totfact> 0.46158099E+06</totfact>
</mgrwt>
</event>
<event>
 3      1 +1.7592000e+01 1.25000000e+02 7.54677100e-03 1.23506900e-01
       21 -1    0    0  502  501 +0.0000000000e+00 +0.0000000000e+00 +8.8527235032e+01 8.8527235032e+01 0.0000000000e+00 0.0000e+00 -1.0000e+00
       21 -1    0    0  501  502 -0.0000000000e+00 -0.0000000000e+00 -4.4124839080e+01 4.4124839080e+01 0.0000000000e+00 0.0000e+00 -1.0000e+00
       25  1    1    2    0    0 +0.0000000000e+00 +0.0000000000e+00 +4.4402395952e+01 1.3265207411e+02 1.2500000000e+02 0.0000e+00 0.0000e+00
<mgrwt>
<rscale>  0 0.12500000E+03</rscale>
<asrwt>0</asrwt>
<pdfrwt beam="1">  1       21 0.13619575E-01 0.12500000E+03</pdfrwt>
<pdfrwt beam="2">  1       21 0.67884368E-02 0.12500000E+03</pdfrwt>
<totfact> 0.73008894E+06</totfact>
</mgrwt>
</event>
<event>
 3      1 +1.7592000e+01 1.25000000e+02 7.54677100e-03 1.23506900e-01
       21 -1    0    0  502  501 +0.0000000000e+00 +0.0000000000e+00 +2.6870962294e+01 2.6870962294e+01 0.0000000000e+00 0.0000e+00 -1.0000e+00
       21 -1    0    0  501  502 -0.0000000000e+00 -0.0000000000e+00 -1.4537067773e+02 1.4537067773e+02 0.0000000000e+00 0.0000e+00 -1.0000e+00
       25  1    1    2    0    0 +0.0000000000e+00 +0.0000000000e+00 -1.1849971544e+02 1.7224164002e+02 1.2500000000e+02 0.0000e+00 0.0000e+00
<mgrwt>
<rscale>  0 0.12500000E+03</rscale>
<asrwt>0</asrwt>
<pdfrwt beam="1">  1       21 0.41339941E-02 0.12500000E+03</pdfrwt>
<pdfrwt beam="2">  1       21 0.22364720E-01 0.12500000E+03</pdfrwt>
<totfact> 0.68052890E+06</totfact>
</mgrwt>
</event>
<event>
 3      1 +1.7592000e+01 1.25000000e+02 7.54677100e-03 1.23506900e-01
       21 -1    0    0  502  501 +0.0000000000e+00 +0.0000000000e+00 +1.3763647212e+01 1.3763647212e+01 0.0000000000e+00 0.0000e+00 1.0000e+00
       21 -1    0    0  501  502 -0.0000000000e+00 -0.0000000000e+00 -2.8380922148e+02 2.8380922148e+02 0.0000000000e+00 0.0000e+00 1.0000e+00
       25  1    1    2    0    0 +0.0000000000e+00 +0.0000000000e+00 -2.7004557427e+02 2.9757286870e+02 1.2500000000e+02 0.0000e+00 0.0000e+00
<mgrwt>
<rscale>  0 0.12500000E+03</rscale>
<asrwt>0</asrwt>
<pdfrwt beam="1">  1       21 0.21174845E-02 0.12500000E+03</pdfrwt>
<pdfrwt beam="2">  1       21 0.43662951E-01 0.12500000E+03</pdfrwt>
<totfact> 0.55658486E+06</totfact>
</mgrwt>
</event>
<event>
 3      1 +1.7592000e+01 1.25000000e+02 7.54677100e-03 1.23506900e-01
       21 -1    0    0  502  501 +0.0000000000e+00 +0.0000000000e+00 +2.8584857466e+02 2.8584857466e+02 0.0000000000e+00 0.0000e+00 1.0000e+00
       21 -1    0    0  501  502 -0.0000000000e+00 -0.0000000000e+00 -1.3665452083e+01 1.3665452083e+01 0.0000000000e+00 0.0000e+00 1.0000e+00
       25  1    1    2    0    0 +0.0000000000e+00 +0.0000000000e+00 +2.7218312258e+02 2.9951402674e+02 1.2500000000e+02 0.0000e+00 0.0000e+00
<mgrwt>
<rscale>  0 0.12500000E+03</rscale>
<asrwt>0</asrwt>
<pdfrwt beam="1">  1       21 0.43976699E-01 0.12500000E+03</pdfrwt>
<pdfrwt beam="2">  1       21 0.21023775E-02 0.12500000E+03</pdfrwt>
<totfact> 0.55496586E+06</totfact>
</mgrwt>
</event>
<event>
 3      1 +1.7592000e+01 1.25000000e+02 7.54677100e-03 1.23506900e-01
       21 -1    0    0  502  501 +0.0000000000e+00 +0.0000000000e+00 +3.6588714850e+02 3.6588714850e+02 0.0000000000e+00 0.0000e+00 -1.0000e+00
       21 -1    0    0  501  502 -0.0000000000e+00 -0.0000000000e+00 -1.0676106051e+01 1.0676106051e+01 0.0000000000e+00 0.0000e+00 -1.0000e+00
       25  1    1    2    0    0 +0.0000000000e+00 +0.0000000000e+00 +3.5521104245e+02 3.7656325455e+02 1.2500000000e+02 0.0000e+00 0.0000e+00
<mgrwt>
<rscale>  0 0.12500000E+03</rscale>
<asrwt>0</asrwt>
<pdfrwt beam="1">  1       21 0.56290321E-01 0.12500000E+03</pdfrwt>
<pdfrwt beam="2">  1       21 0.16424781E-02 0.12500000E+03</pdfrwt>
<totfact> 0.49634529E+06</totfact>
</mgrwt>
</event>
<event>
 3      1 +1.7592000e+01 1.25000000e+02 7.54677100e-03 1.23506900e-01
       21 -1    0    0  502  501 +0.0000000000e+00 +0.0000000000e+00 +2.6546060142e+02 2.6546060142e+02 0.0000000000e+00 0.0000e+00 -1.0000e+00
       21 -1    0    0  501  502 -0.0000000000e+00 -0.0000000000e+00 -1.4714989641e+01 1.4714989641e+01 0.0000000000e+00 0.0000e+00 -1.0000e+00
       25  1    1    2    0    0 +0.0000000000e+00 +0.0000000000e+00 +2.5074561177e+02 2.8017559106e+02 1.2500000000e+02 0.0000e+00 0.0000e+00
<mgrwt>
<rscale>  0 0.12500000E+03</rscale>
<asrwt>0</asrwt>
<pdfrwt beam="1">  1       21 0.40840089E-01 0.12500000E+03</pdfrwt>
<pdfrwt beam="2">  1       21 0.22638448E-02 0.12500000E+03</pdfrwt>
<totfact> 0.57144980E+06</totfact>
</mgrwt>
</event>
<event>
 3      1 +1.7592000e+01 1.25000000e+02 7.54677100e-03 1.23506900e-01
       21 -1    0    0  502  501 +0.0000000000e+00 +0.0000000000e+00 +9.3653951290e+00 9.3653951290e+00 0.0000000000e+00 0.0000e+00 1.0000e+00
       21 -1    0    0  501  502 -0.0000000000e+00 -0.0000000000e+00 -4.1709398762e+02 4.1709398762e+02 0.0000000000e+00 0.0000e+00 1.0000e+00
       25  1    1    2    0    0 +0.0000000000e+00 +0.0000000000e+00 -4.0772859249e+02 4.2645938275e+02 1.2500000000e+02 0.0000e+00 0.0000e+00
<mgrwt>
<rscale>  0 0.12500000E+03</rscale>
<asrwt>0</asrwt>
<pdfrwt beam="1">  1       21 0.14408297E-02 0.12500000E+03</pdfrwt>
<pdfrwt beam="2">  1       21 0.64168322E-01 0.12500000E+03</pdfrwt>
<totfact> 0.46334452E+06</totfact>
</mgrwt>
</event>
<event>
 3      1 +1.7592000e+01 1.25000000e+02 7.54677100e-03 1.23506900e-01
       21 -1    0    0  502  501 +0.0000000000e+00 +0.0000000000e+00 +1.0134931632e+02 1.0134931632e+02 0.0000000000e+00 0.0000e+00 1.0000e+00
       21 -1    0    0  501  502 -0.0000000000e+00 -0.0000000000e+00 -3.8542440560e+01 3.8542440560e+01 0.0000000000e+00 0.0000e+00 1.0000e+00
       25  1    1    2    0    0 +0.0000000000e+00 +0.0000000000e+00 +6.2806875760e+01 1.3989175688e+02 1.2500000000e+02 0.0000e+00 0.0000e+00
<mgrwt>
<rscale>  0 0.12500000E+03</rscale>
<asrwt>0</asrwt>
<pdfrwt beam="1">  1       21 0.15592202E-01 0.12500000E+03</pdfrwt>
<pdfrwt beam="2">  1       21 0.59296063E-02 0.12500000E+03</pdfrwt>
<totfact> 0.72053442E+06</totfact>
</mgrwt>
</event>
<event>
 3      1 +1.7592000e+01 1.25000000e+02 7.54677100e-03 1.23506900e-01
       21 -1    0    0  502  501 +0.0000000000e+00 +0.0000000000e+00 +2.3707910850e+01 2.3707910850e+01 0.0000000000e+00 0.0000e+00 -1.0000e+00
       21 -1    0    0  501  502 -0.0000000000e+00 -0.0000000000e+00 -1.6476567778e+02 1.6476567778e+02 0.0000000000e+00 0.0000e+00 -1.0000e+00
       25  1    1    2    0    0 +0.0000000000e+00 +0.0000000000e+00 -1.4105776693e+02 1.8847358863e+02 1.2500000000e+02 0.0000e+00 0.0000e+00
<mgrwt>
<rscale>  0 0.12500000E+03</rscale>
<asrwt>0</asrwt>
<pdfrwt beam="1">  1       21 0.36473708E-02 0.12500000E+03</pdfrwt>
<pdfrwt beam="2">  1       21 0.25348567E-01 0.12500000E+03</pdfrwt>
<totfact> 0.66192512E+06</totfact>
</mgrwt>
</event>
<event>
 3      1 +1.7592000e+01 1.25000000e+02 7.54677100e-03 1.23506900e-01
       21 -1    0    0  502  501 +0.0000000000e+00 +0.0000000000e+00 +6.0272375534e+01 6.0272375534e+01 0.0000000000e+00 0.0000e+00 -1.0000e+00
       21 -1    0    0  501  502 -0.0000000000e+00 -0.0000000000e+00 -6.4809955894e+01 6.4809955894e+01 0.0000000000e+00 0.0000e+00 -1.0000e+00
       25  1    1    2    0    0 +0.0000000000e+00 +0.0000000000e+00 -4.5375803599e+00 1.2508233143e+02 1.2500000000e+02 0.0000e+00 0.0000e+00
<mgrwt>
<rscale>  0 0.12500000E+03</rscale>
<asrwt>0</asrwt>
<pdfrwt beam="1">  1       21 0.92726732E-02 0.12500000E+03</pdfrwt>
<pdfrwt beam="2">  1       21 0.99707624E-02 0.12500000E+03</pdfrwt>
<totfact> 0.74032461E+06</totfact>
</mgrwt>
</event>
<event>
 3      1 +1.7592000e+01 1.25000000e+02 7.54677100e-03 1.23506900e-01
       21 -1    0    0  502  501 +0.0000000000e+00 +0.0000000000e+00 +1.4017038922e+02 1.4017038922e+02 0.0000000000e+00 0.0000e+00 1.0000e+00
       21 -1    0    0  501  502 -0.0000000000e+00 -0.0000000000e+00 -2.7867868683e+01 2.7867868683e+01 0.0000000000e+00 0.0000e+00 1.0000e+00
       25  1    1    2    0    0 +0.0000000000e+00 +0.0000000000e+00 +1.1230252054e+02 1.6803825790e+02 1.2500000000e+02 0.0000e+00 0.0000e+00
<mgrwt>
<rscale>  0 0.12500000E+03</rscale>
<asrwt>0</asrwt>
<pdfrwt beam="1">  1       21 0.21564675E-01 0.12500000E+03</pdfrwt>
<pdfrwt beam="2">  1       21 0.42873645E-02 0.12500000E+03</pdfrwt>
<totfact> 0.68550403E+06</totfact>
</mgrwt>
</event>
<event>
 3      1 +1.7592000e+01 1.25000000e+02 7.54677100e-03 1.23506900e-01
       21 -1    0    0  502  501 +0.0000000000e+00 +0.0000000000e+00 +3.3780612814e+01 3.3780612814e+01 0.0000000000e+00 0.0000e+00 1.0000e+00
       21 -1    0    0  501  502 -0.0000000000e+00 -0.0000000000e+00 -1.1563585366e+02 1.1563585366e+02 0.0000000000e+00 0.0000e+00 1.0000e+00
       25  1    1    2    0    0 +0.0000000000e+00 +0.0000000000e+00 -8.1855240850e+01 1.4941646648e+02 1.2500000000e+02 0.0000e+00 0.0000e+00
<mgrwt>
<rscale>  0 0.12500000E+03</rscale>
<asrwt>0</asrwt>
<pdfrwt beam="1">  1       21 0.51970174E-02 0.12500000E+03</pdfrwt>
<pdfrwt beam="2">  1       21 0.17790131E-01 0.12500000E+03</pdfrwt>
<totfact> 0.70832580E+06</totfact>
</mgrwt>
</event>
<event>
 3      1 +1.7592000e+01 1.25000000e+02 7.54677100e-03 1.23506900e-01
       21 -1    0    0  502  501 +0.0000000000e+00 +0.0000000000e+00 +1.7782197082e+02 1.7782197082e+02 0.0000000000e+00 0.0000e+00 1.0000e+00
       21 -1    0    0  501  502 -0.0000000000e+00 -0.0000000000e+00 -2.1967195516e+01 2.1967195516e+01 0.0000000000e+00 0.0000e+00 1.0000e+00
       25  1    1    2    0    0 +0.0000000000e+00 +0.0000000000e+00 +1.5585477530e+02 1.9978916634e+02 1.2500000000e+02 0.0000e+00 0.0000e+00
<mgrwt>
<rscale>  0 0.12500000E+03</rscale>
<asrwt>0</asrwt>
<pdfrwt beam="1">  1       21 0.27357225E-01 0.12500000E+03</pdfrwt>
<pdfrwt beam="2">  1       21 0.33795687E-02 0.12500000E+03</pdfrwt>
<totfact> 0.64950105E+06</totfact>
</mgrwt>
</event>
<event>
 3      1 +1.7592000e+01 1.25000000e+02 7.54677100e-03 1.23506900e-01
       21 -1    0    0  502  501 +0.0000000000e+00 +0.0000000000e+00 +2.6821511492e+01 2.6821511492e+01 0.0000000000e+00 0.0000e+00 -1.0000e+00
       21 -1    0    0  501  502 -0.0000000000e+00 -0.0000000000e+00 -1.4563869755e+02 1.4563869755e+02 0.0000000000e+00 0.0000e+00 -1.0000e+00
       25  1    1    2    0    0 +0.0000000000e+00 +0.0000000000e+00 -1.1881718606e+02 1.7246020904e+02 1.2500000000e+02 0.0000e+00 0.0000e+00
<mgrwt>
<rscale>  0 0.12500000E+03</rscale>
<asrwt>0</asrwt>
<pdfrwt beam="1">  1       21 0.41263863E-02 0.12500000E+03</pdfrwt>
<pdfrwt beam="2">  1       21 0.22405954E-01 0.12500000E+03</pdfrwt>
<totfact> 0.68027182E+06</totfact>
</mgrwt>
</event>
<event>
 3      1 +1.7592000e+01 1.25000000e+02 7.54677100e-03 1.23506900e-01
       21 -1    0    0  502  501 +0.0000000000e+00 +0.0000000000e+00 +2.4662758901e+01 2.4662758901e+01 0.0000000000e+00 0.0000e+00 -1.0000e+00
       21 -1    0    0  501  502 -0.0000000000e+00 -0.0000000000e+00 -1.5838657855e+02 1.5838657855e+02 0.0000000000e+00 0.0000e+00 -1.0000e+00
       25  1    1    2    0    0 +0.0000000000e+00 +0.0000000000e+00 -1.3372381965e+02 1.8304933745e+02 1.2500000000e+02 0.0000e+00 0.0000e+00
<mgrwt>
<rscale>  0 0.12500000E+03</rscale>
<asrwt>0</asrwt>
<pdfrwt beam="1">  1       21 0.37942707E-02 0.12500000E+03</pdfrwt>
<pdfrwt beam="2">  1       21 0.24367166E-01 0.12500000E+03</pdfrwt>
<totfact> 0.66803437E+06</totfact>
</mgrwt>
</event>
<event>
 3      1 +1.7592000e+01 1.25000000e+02 7.54677100e-03 1.23506900e-01
       21 -1    0    0  502  501 +0.0000000000e+00 +0.0000000000e+00 +1.6237629733e+03 1.6237629733e+03 0.0000000000e+00 0.0000e+00 -1.0000e+00
       21 -1    0    0  501  502 -0.0000000000e+00 -0.0000000000e+00 -2.4056774691e+00 2.4056774691e+00 0.0000000000e+00 0.0000e+00 -1.0000e+00
       25  1    1    2    0    0 +0.0000000000e+00 +0.0000000000e+00 +1.6213572958e+03 1.6261686508e+03 1.2500000000e+02 0.0000e+00 0.0000e+00
<mgrwt>
<rscale>  0 0.12500000E+03</rscale>
<asrwt>0</asrwt>
<pdfrwt beam="1">  1       21 0.24980881E+00 0.12500000E+03</pdfrwt>
<pdfrwt beam="2">  1       21 0.37010552E-03 0.12500000E+03</pdfrwt>
<totfact> 0.12221892E+06</totfact>
</mgrwt>
</event>
<event>
 3      1 +1.7592000e+01 1.25000000e+02 7.54677100e-03 1.23506900e-01
       21 -1    0    0  502  501 +0.0000000000e+00 +0.0000000000e+00 +2.3661096849e+01 2.3661096849e+01 0.0000000000e+00 0.0000e+00 -1.0000e+00
       21 -1    0    0  501  502 -0.0000000000e+00 -0.0000000000e+00 -1.6509167031e+02 1.6509167031e+02 0.0000000000e+00 0.0000e+00 -1.0000e+00
       25  1    1    2    0    0 +0.0000000000e+00 +0.0000000000e+00 -1.4143057346e+02 1.8875276715e+02 1.2500000000e+02 0.0000e+00 0.0000e+00
<mgrwt>
<rscale>  0 0.12500000E+03</rscale>
<asrwt>0</asrwt>
<pdfrwt beam="1">  1       21 0.36401686E-02 0.12500000E+03</pdfrwt>
<pdfrwt beam="2">  1       21 0.25398720E-01 0.12500000E+03</pdfrwt>
<totfact> 0.66161350E+06</totfact>
</mgrwt>
</event>
<event>
 3      1 +1.7592000e+01 1.25000000e+02 7.54677100e-03 1.23506900e-01
       21 -1    0    0  502  501 +0.0000000000e+00 +0.0000000000e+00 +1.1883850722e+02 1.1883850722e+02 0.0000000000e+00 0.0000e+00 -1.0000e+00
       21 -1    0    0  501  502 -0.0000000000e+00 -0.0000000000e+00 -3.2870237867e+01 3.2870237867e+01 0.0000000000e+00 0.0000e+00 -1.0000e+00
       25  1    1    2    0    0 +0.0000000000e+00 +0.0000000000e+00 +8.5968269352e+01 1.5170874509e+02 1.2500000000e+02 0.0000e+00 0.0000e+00
<mgrwt>
<rscale>  0 0.12500000E+03</rscale>
<asrwt>0</asrwt>
<pdfrwt beam="1">  1       21 0.18282847E-01 0.12500000E+03</pdfrwt>
<pdfrwt beam="2">  1       21 0.50569597E-02 0.12500000E+03</pdfrwt>
<totfact> 0.70545206E+06</totfact>
</mgrwt>
</event>
<event>
 3      1 +1.7592000e+01 1.25000000e+02 7.54677100e-03 1.23506900e-01
       21 -1    0    0  502  501 +0.0000000000e+00 +0.0000000000e+00 +2.4772920732e+02 2.4772920732e+02 0.0000000000e+00 0.0000e+00 -1.0000e+00
       21 -1    0    0  501  502 -0.0000000000e+00 -0.0000000000e+00 -1.5768225484e+01 1.5768225484e+01 0.0000000000e+00 0.0000e+00 -1.0000e+00
       25  1    1    2    0    0 +0.0000000000e+00 +0.0000000000e+00 +2.3196098184e+02 2.6349743281e+02 1.2500000000e+02 0.0000e+00 0.0000e+00
<mgrwt>
<rscale>  0 0.12500000E+03</rscale>
<asrwt>0</asrwt>
<pdfrwt beam="1">  1       21 0.38112183E-01 0.12500000E+03</pdfrwt>
<pdfrwt beam="2">  1       21 0.24258810E-02 0.12500000E+03</pdfrwt>
<totfact> 0.58630190E+06</totfact>
</mgrwt>
</event>
<event>
 3      1 +1.7592000e+01 1.25000000e+02 7.54677100e-03 1.23506900e-01
       21 -1    0    0  502  501 +0.0000000000e+00 +0.0000000000e+00 +1.9878184082e+02 1.9878184082e+02 0.0000000000e+00 0.0000e+00 1.0000e+00
       21 -1    0    0  501  502 -0.0000000000e+00 -0.0000000000e+00 -1.9650939864e+01 1.9650939864e+01 0.0000000000e+00 0.0000e+00 1.0000e+00
       25  1    1    2    0    0 +0.0000000000e+00 +0.0000000000e+00 +1.7913090095e+02 2.1843278068e+02 1.2500000000e+02 0.0000e+00 0.0000e+00
<mgrwt>
<rscale>  0 0.12500000E+03</rscale>
<asrwt>0</asrwt>
<pdfrwt beam="1">  1       21 0.30581820E-01 0.12500000E+03</pdfrwt>
<pdfrwt beam="2">  1       21 0.30232217E-02 0.12500000E+03</pdfrwt>
<totfact> 0.62983087E+06</totfact>
</mgrwt>
</event>
<event>
 3      1 +1.7592000e+01 1.25000000e+02 7.54677100e-03 1.23506900e-01
       21 -1    0    0  502  501 +0.0000000000e+00 +0.0000000000e+00 +2.9198099660e+01 2.9198099660e+01 0.0000000000e+00 0.0000e+00 -1.0000e+00
       21 -1    0    0  501  502 -0.0000000000e+00 -0.0000000000e+00 -1.3378439164e+02 1.3378439164e+02 0.0000000000e+00 0.0000e+00 -1.0000e+00
       25  1    1    2    0    0 +0.0000000000e+00 +0.0000000000e+00 -1.0458629198e+02 1.6298249130e+02 1.2500000000e+02 0.0000e+00 0.0000e+00
<mgrwt>
<rscale>  0 0.12500000E+03</rscale>
<asrwt>0</asrwt>
<pdfrwt beam="1">  1       21 0.44920153E-02 0.12500000E+03</pdfrwt>
<pdfrwt beam="2">  1       21 0.20582214E-01 0.12500000E+03</pdfrwt>
<totfact> 0.69156892E+06</totfact>
</mgrwt>
</event>
<event>
 3      1 +1.7592000e+01 1.25000000e+02 7.54677100e-03 1.23506900e-01
       21 -1    0    0  502  501 +0.0000000000e+00 +0.0000000000e+00 +2.0434229353e+01 2.0434229353e+01 0.0000000000e+00 0.0000e+00 1.0000e+00
       21 -1    0    0  501  502 -0.0000000000e+00 -0.0000000000e+00 -1.9116209046e+02 1.9116209046e+02 0.0000000000e+00 0.0000e+00 1.0000e+00
       25  1    1    2    0    0 +0.0000000000e+00 +0.0000000000e+00 -1.7072786111e+02 2.1159631981e+02 1.2500000000e+02 0.0000e+00 0.0000e+00
<mgrwt>
<rscale>  0 0.12500000E+03</rscale>
<asrwt>0</asrwt>
<pdfrwt beam="1">  1       21 0.31437277E-02 0.12500000E+03</pdfrwt>
<pdfrwt beam="2">  1       21 0.29409551E-01 0.12500000E+03</pdfrwt>
<totfact> 0.63691976E+06</totfact>
</mgrwt>
</event>
<event>
 3      1 +1.7592000e+01 1.25000000e+02 7.54677100e-03 1.23506900e-01
       21 -1    0    0  502  501 +0.0000000000e+00 +0.0000000000e+00 +6.7280714423e+01 6.7280714423e+01 0.0000000000e+00 0.0000e+00 -1.0000e+00
       21 -1    0    0  501  502 -0.0000000000e+00 -0.0000000000e+00 -5.8058985157e+01 5.8058985157e+01 0.0000000000e+00 0.0000e+00 -1.0000e+00
       25  1    1    2    0    0 +0.0000000000e+00 +0.0000000000e+00 +9.2217292662e+00 1.2533969958e+02 1.2500000000e+02 0.0000e+00 0.0000e+00
<mgrwt>
<rscale>  0 0.12500000E+03</rscale>
<asrwt>0</asrwt>
<pdfrwt beam="1">  1       21 0.10350879E-01 0.12500000E+03</pdfrwt>
<pdfrwt beam="2">  1       21 0.89321515E-02 0.12500000E+03</pdfrwt>
<totfact> 0.73997713E+06</totfact>
</mgrwt>
</event>
<event>
 3      1 +1.7592000e+01 1.25000000e+02 7.54677100e-03 1.23506900e-01
       21 -1    0    0  502  501 +0.0000000000e+00 +0.0000000000e+00 +3.0567425636e+01 3.0567425636e+01 0.0000000000e+00 0.0000e+00 1.0000e+00
       21 -1    0    0  501  502 -0.0000000000e+00 -0.0000000000e+00 -1.2779126533e+02 1.2779126533e+02 0.0000000000e+00 0.0000e+00 1.0000e+00
       25  1    1    2    0    0 +0.0000000000e+00 +0.0000000000e+00 -9.7223839698e+01 1.5835869097e+02 1.2500000000e+02 0.0000e+00 0.0000e+00
<mgrwt>
<rscale>  0 0.12500000E+03</rscale>
<asrwt>0</asrwt>
<pdfrwt beam="1">  1       21 0.47026810E-02 0.12500000E+03</pdfrwt>
<pdfrwt beam="2">  1       21 0.19660194E-01 0.12500000E+03</pdfrwt>
<totfact> 0.69720604E+06</totfact>
</mgrwt>
</event>
<event>
 3      1 +1.7592000e+01 1.25000000e+02 7.54677100e-03 1.23506900e-01
       21 -1    0    0  502  501 +0.0000000000e+00 +0.0000000000e+00 +6.0901729044e+00 6.0901729044e+00 0.0000000000e+00 0.0000e+00 -1.0000e+00
       21 -1    0    0  501  502 -0.0000000000e+00 -0.0000000000e+00 -6.4140215087e+02 6.4140215087e+02 0.0000000000e+00 0.0000e+00 -1.0000e+00
       25  1    1    2    0    0 +0.0000000000e+00 +0.0000000000e+00 -6.3531197796e+02 6.4749232377e+02 1.2500000000e+02 0.0000e+00 0.0000e+00
<mgrwt>
<rscale>  0 0.12500000E+03</rscale>
<asrwt>0</asrwt>
<pdfrwt beam="1">  1       21 0.93694910E-03 0.12500000E+03</pdfrwt>
<pdfrwt beam="2">  1       21 0.98677314E-01 0.12500000E+03</pdfrwt>
<totfact> 0.35029024E+06</totfact>
</mgrwt>
</event>
<event>
 3      1 +1.7592000e+01 1.25000000e+02 7.54677100e-03 1.23506900e-01
       21 -1    0    0  502  501 +0.0000000000e+00 +0.0000000000e+00 +4.9797352648e+01 4.9797352648e+01 0.0000000000e+00 0.0000e+00 -1.0000e+00
       21 -1    0    0  501  502 -0.0000000000e+00 -0.0000000000e+00 -7.8442925021e+01 7.8442925021e+01 0.0000000000e+00 0.0000e+00 -1.0000e+00
       25  1    1    2    0    0 +0.0000000000e+00 +0.0000000000e+00 -2.8645572373e+01 1.2824027767e+02 1.2500000000e+02 0.0000e+00 0.0000e+00
<mgrwt>
<rscale>  0 0.12500000E+03</rscale>
<asrwt>0</asrwt>
<pdfrwt beam="1">  1       21 0.76611312E-02 0.12500000E+03</pdfrwt>
<pdfrwt beam="2">  1       21 0.12068142E-01 0.12500000E+03</pdfrwt>
<totfact> 0.73601126E+06</totfact>
</mgrwt>
</event>
<event>
 3      1 +1.7592000e+01 1.25000000e+02 7.54677100e-03 1.23506900e-01
       21 -1    0    0  502  501 +0.0000000000e+00 +0.0000000000e+00 +1.1582647924e+02 1.1582647924e+02 0.0000000000e+00 0.0000e+00 1.0000e+00
       21 -1    0    0  501  502 -0.0000000000e+00 -0.0000000000e+00 -3.3725017161e+01 3.3725017161e+01 0.0000000000e+00 0.0000e+00 1.0000e+00
       25  1    1    2    0    0 +0.0000000000e+00 +0.0000000000e+00 +8.2101462076e+01 1.4955149640e+02 1.2500000000e+02 0.0000e+00 0.0000e+00
<mgrwt>
<rscale>  0 0.12500000E+03</rscale>
<asrwt>0</asrwt>
<pdfrwt beam="1">  1       21 0.17819458E-01 0.12500000E+03</pdfrwt>
<pdfrwt beam="2">  1       21 0.51884642E-02 0.12500000E+03</pdfrwt>
<totfact> 0.70815587E+06</totfact>
</mgrwt>
</event>
<event>
 3      1 +1.7592000e+01 1.25000000e+02 7.54677100e-03 1.23506900e-01
       21 -1    0    0  502  501 +0.0000000000e+00 +0.0000000000e+00 +5.5340611901e+01 5.5340611901e+01 0.0000000000e+00 0.0000e+00 -1.0000e+00
       21 -1    0    0  501  502 -0.0000000000e+00 -0.0000000000e+00 -7.0585594662e+01 7.0585594662e+01 0.0000000000e+00 0.0000e+00 -1.0000e+00
       25  1    1    2    0    0 +0.0000000000e+00 +0.0000000000e+00 -1.5244982761e+01 1.2592620656e+02 1.2500000000e+02 0.0000e+00 0.0000e+00
<mgrwt>
<rscale>  0 0.12500000E+03</rscale>
<asrwt>0</asrwt>
<pdfrwt beam="1">  1       21 0.85139403E-02 0.12500000E+03</pdfrwt>
<pdfrwt beam="2">  1       21 0.10859322E-01 0.12500000E+03</pdfrwt>
<totfact> 0.73916221E+06</totfact>
</mgrwt>
</event>
<event>
 3      1 +1.7592000e+01 1.25000000e+02 7.54677100e-03 1.23506900e-01
       21 -1    0    0  502  501 +0.0000000000e+00 +0.0000000000e+00 +1.3008027075e+02 1.3008027075e+02 0.0000000000e+00 0.0000e+00 -1.0000e+00
       21 -1    0    0  501  502 -0.0000000000e+00 -0.0000000000e+00 -3.0029534668e+01 3.0029534668e+01 0.0000000000e+00 0.0000e+00 -1.0000e+00
       25  1    1    2    0    0 +0.0000000000e+00 +0.0000000000e+00 +1.0005073608e+02 1.6010980542e+02 1.2500000000e+02 0.0000e+00 0.0000e+00
<mgrwt>
<rscale>  0 0.12500000E+03</rscale>
<asrwt>0</asrwt>
<pdfrwt beam="1">  1       21 0.20012349E-01 0.12500000E+03</pdfrwt>
<pdfrwt beam="2">  1       21 0.46199285E-02 0.12500000E+03</pdfrwt>
<totfact> 0.69506081E+06</totfact>
</mgrwt>
</event>
<event>
 3      1 +1.7592000e+01 1.25000000e+02 7.54677100e-03 1.23506900e-01
       21 -1    0    0  502  501 +0.0000000000e+00 +0.0000000000e+00 +3.1439739726e+02 3.1439739726e+02 0.0000000000e+00 0.0000e+00 1.0000e+00
       21 -1    0    0  501  502 -0.0000000000e+00 -0.0000000000e+00 -1.2424562144e+01 1.2424562144e+01 0.0000000000e+00 0.0000e+00 1.0000e+00
       25  1    1    2    0    0 +0.0000000000e+00 +0.0000000000e+00 +3.0197283512e+02 3.2682195940e+02 1.2500000000e+02 0.0000e+00 0.0000e+00
<mgrwt>
<rscale>  0 0.12500000E+03</rscale>
<asrwt>0</asrwt>
<pdfrwt beam="1">  1       21 0.48368824E-01 0.12500000E+03</pdfrwt>
<pdfrwt beam="2">  1       21 0.19114713E-02 0.12500000E+03</pdfrwt>
<totfact> 0.53297129E+06</totfact>
</mgrwt>
</event>
<event>
 3      1 +1.7592000e+01 1.25000000e+02 7.54677100e-03 1.23506900e-01
       21 -1    0    0  502  501 +0.0000000000e+00 +0.0000000000e+00 +2.2586598833e+01 2.2586598833e+01 0.0000000000e+00 0.0000e+00 -1.0000e+00
       21 -1    0    0  501  502 -0.0000000000e+00 -0.0000000000e+00 -1.7294547218e+02 1.7294547218e+02 0.0000000000e+00 0.0000e+00 -1.0000e+00
       25  1    1    2    0    0 +0.0000000000e+00 +0.0000000000e+00 -1.5035887334e+02 1.9553207101e+02 1.2500000000e+02 0.0000e+00 0.0000e+00
<mgrwt>
<rscale>  0 0.12500000E+03</rscale>
<asrwt>0</asrwt>
<pdfrwt beam="1">  1       21 0.34748613E-02 0.12500000E+03</pdfrwt>
<pdfrwt beam="2">  1       21 0.26606996E-01 0.12500000E+03</pdfrwt>
<totfact> 0.65412835E+06</totfact>
</mgrwt>
</event>
<event>
 3      1 +1.7592000e+01 1.25000000e+02 7.54677100e-03 1.23506900e-01
       21 -1    0    0  502  501 +0.0000000000e+00 +0.0000000000e+00 +7.3603855479e+02 7.3603855479e+02 0.0000000000e+00 0.0000e+00 -1.0000e+00
       21 -1    0    0  501  502 -0.0000000000e+00 -0.0000000000e+00 -5.3071268816e+00 5.3071268816e+00 0.0000000000e+00 0.0000e+00 -1.0000e+00
       25  1    1    2    0    0 +0.0000000000e+00 +0.0000000000e+00 +7.3073142791e+02 7.4134568167e+02 1.2500000000e+02 0.0000e+00 0.0000e+00
<mgrwt>
<rscale>  0 0.12500000E+03</rscale>
<asrwt>0</asrwt>
<pdfrwt beam="1">  1       21 0.11323662E+00 0.12500000E+03</pdfrwt>
<pdfrwt beam="2">  1       21 0.81648164E-03 0.12500000E+03</pdfrwt>
<totfact> 0.31375629E+06</totfact>
</mgrwt>
</event>
<event>
 3      1 +1.7592000e+01 1.25000000e+02 7.54677100e-03 1.23506900e-01
       21 -1    0    0  502  501 +0.0000000000e+00 +0.0000000000e+00 +2.1142702840e+01 2.1142702840e+01 0.0000000000e+00 0.0000e+00 1.0000e+00
       21 -1    0    0  501  502 -0.0000000000e+00 -0.0000000000e+00 -1.8475641594e+02 1.8475641594e+02 0.0000000000e+00 0.0000e+00 1.0000e+00
       25  1    1    2    0    0 +0.0000000000e+00 +0.0000000000e+00 -1.6361371310e+02 2.0589911878e+02 1.2500000000e+02 0.0000e+00 0.0000e+00
<mgrwt>
<rscale>  0 0.12500000E+03</rscale>
<asrwt>0</asrwt>
<pdfrwt beam="1">  1       21 0.32527236E-02 0.12500000E+03</pdfrwt>
<pdfrwt beam="2">  1       21 0.28424063E-01 0.12500000E+03</pdfrwt>
<totfact> 0.64293595E+06</totfact>
</mgrwt>
</event>
<event>
 3      1 +1.7592000e+01 1.25000000e+02 7.54677100e-03 1.23506900e-01
       21 -1    0    0  502  501 +0.0000000000e+00 +0.0000000000e+00 +3.8847116283e+01 3.8847116283e+01 0.0000000000e+00 0.0000e+00 1.0000e+00
       21 -1    0    0  501  502 -0.0000000000e+00 -0.0000000000e+00 -1.0055443940e+02 1.0055443940e+02 0.0000000000e+00 0.0000e+00 1.0000e+00
       25  1    1    2    0    0 +0.0000000000e+00 +0.0000000000e+00 -6.1707323113e+01 1.3940155568e+02 1.2500000000e+02 0.0000e+00 0.0000e+00
<mgrwt>
<rscale>  0 0.12500000E+03</rscale>
<asrwt>0</asrwt>
<pdfrwt beam="1">  1       21 0.59764794E-02 0.12500000E+03</pdfrwt>
<pdfrwt beam="2">  1       21 0.15469914E-01 0.12500000E+03</pdfrwt>
<totfact> 0.72117530E+06</totfact>
</mgrwt>
</event>
<event>
 3      1 +1.7592000e+01 1.25000000e+02 7.54677100e-03 1.23506900e-01
       21 -1    0    0  502  501 +0.0000000000e+00 +0.0000000000e+00 +7.7104982571e+01 7.7104982571e+01 0.0000000000e+00 0.0000e+00 -1.0000e+00
       21 -1    0    0  501  502 -0.0000000000e+00 -0.0000000000e+00 -5.0661447156e+01 5.0661447156e+01 0.0000000000e+00 0.0000e+00 -1.0000e+00
       25  1    1    2    0    0 +0.0000000000e+00 +0.0000000000e+00 +2.6443535415e+01 1.2776642973e+02 1.2500000000e+02 0.0000e+00 0.0000e+00
<mgrwt>
<rscale>  0 0.12500000E+03</rscale>
<asrwt>0</asrwt>
<pdfrwt beam="1">  1       21 0.11862305E-01 0.12500000E+03</pdfrwt>
<pdfrwt beam="2">  1       21 0.77940688E-02 0.12500000E+03</pdfrwt>
<totfact> 0.73665136E+06</totfact>
</mgrwt>
</event>
<event>
 3      1 +1.7592000e+01 1.25000000e+02 7.54677100e-03 1.23506900e-01
       21 -1    0    0  502  501 +0.0000000000e+00 +0.0000000000e+00 +2.9855228662e+01 2.9855228662e+01 0.0000000000e+00 0.0000e+00 1.0000e+00
       21 -1    0    0  501  502 -0.0000000000e+00 -0.0000000000e+00 -1.3083972808e+02 1.3083972808e+02 0.0000000000e+00 0.0000e+00 1.0000e+00
       25  1    1    2    0    0 +0.0000000000e+00 +0.0000000000e+00 -1.0098449942e+02 1.6069495674e+02 1.2500000000e+02 0.0000e+00 0.0000e+00
<mgrwt>
<rscale>  0 0.12500000E+03</rscale>
<asrwt>0</asrwt>
<pdfrwt beam="1">  1       21 0.45931121E-02 0.12500000E+03</pdfrwt>
<pdfrwt beam="2">  1       21 0.20129189E-01 0.12500000E+03</pdfrwt>
<totfact> 0.69434679E+06</totfact>
</mgrwt>
</event>
<event>
 3      1 +1.7592000e+01 1.25000000e+02 7.54677100e-03 1.23506900e-01
       21 -1    0    0  502  501 +0.0000000000e+00 +0.0000000000e+00 +1.8765222704e+00 1.8765222704e+00 0.0000000000e+00 0.0000e+00 1.0000e+00
       21 -1    0    0  501  502 -0.0000000000e+00 -0.0000000000e+00 -2.0816432939e+03 2.0816432939e+03 0.0000000000e+00 0.0000e+00 1.0000e+00
       25  1    1    2    0    0 +0.0000000000e+00 +0.0000000000e+00 -2.0797667716e+03 2.0835198162e+03 1.2500000000e+02 0.0000e+00 0.0000e+00
<mgrwt>
<rscale>  0 0.12500000E+03</rscale>
<asrwt>0</asrwt>
<pdfrwt beam="1">  1       21 0.28869542E-03 0.12500000E+03</pdfrwt>
<pdfrwt beam="2">  1       21 0.32025316E+00 0.12500000E+03</pdfrwt>
<totfact> 0.71620629E+05</totfact>
</mgrwt>
</event>
<event>
 3      1 +1.7592000e+01 1.25000000e+02 7.54677100e-03 1.23506900e-01
       21 -1    0    0  502  501 +0.0000000000e+00 +0.0000000000e+00 +1.5957643923e+02 1.5957643923e+02 0.0000000000e+00 0.0000e+00 -1.0000e+00
       21 -1    0    0  501  502 -0.0000000000e+00 -0.0000000000e+00 -2.4478864292e+01 2.4478864292e+01 0.0000000000e+00 0.0000e+00 -1.0000e+00
       25  1    1    2    0    0 +0.0000000000e+00 +0.0000000000e+00 +1.3509757494e+02 1.8405530352e+02 1.2500000000e+02 0.0000e+00 0.0000e+00
<mgrwt>
<rscale>  0 0.12500000E+03</rscale>
<asrwt>0</asrwt>
<pdfrwt beam="1">  1       21 0.24550221E-01 0.12500000E+03</pdfrwt>
<pdfrwt beam="2">  1       21 0.37659792E-02 0.12500000E+03</pdfrwt>
<totfact> 0.66689343E+06</totfact>
</mgrwt>
</event>
<event>
 3      1 +1.7592000e+01 1.25000000e+02 7.54677100e-03 1.23506900e-01
       21 -1    0    0  502  501 +0.0000000000e+00 +0.0000000000e+00 +5.7181157603e+01 5.7181157603e+01 0.0000000000e+00 0.0000e+00 -1.0000e+00
       21 -1    0    0  501  502 -0.0000000000e+00 -0.0000000000e+00 -6.8313587268e+01 6.8313587268e+01 0.0000000000e+00 0.0000e+00 -1.0000e+00
       25  1    1    2    0    0 +0.0000000000e+00 +0.0000000000e+00 -1.1132429665e+01 1.2549474487e+02 1.2500000000e+02 0.0000e+00 0.0000e+00
<mgrwt>
<rscale>  0 0.12500000E+03</rscale>
<asrwt>0</asrwt>
<pdfrwt beam="1">  1       21 0.87971012E-02 0.12500000E+03</pdfrwt>
<pdfrwt beam="2">  1       21 0.10509783E-01 0.12500000E+03</pdfrwt>
<totfact> 0.73976131E+06</totfact>
</mgrwt>
</event>
<event>
 3      1 +1.7592000e+01 1.25000000e+02 7.54677100e-03 1.23506900e-01
       21 -1    0    0  502  501 +0.0000000000e+00 +0.0000000000e+00 +2.4832447165e+02 2.4832447165e+02 0.0000000000e+00 0.0000e+00 -1.0000e+00
       21 -1    0    0  501  502 -0.0000000000e+00 -0.0000000000e+00 -1.5730427106e+01 1.5730427106e+01 0.0000000000e+00 0.0000e+00 -1.0000e+00
       25  1    1    2    0    0 +0.0000000000e+00 +0.0000000000e+00 +2.3259404455e+02 2.6405489876e+02 1.2500000000e+02 0.0000e+00 0.0000e+00
<mgrwt>
<rscale>  0 0.12500000E+03</rscale>
<asrwt>0</asrwt>
<pdfrwt beam="1">  1       21 0.38203762E-01 0.12500000E+03</pdfrwt>
<pdfrwt beam="2">  1       21 0.24200659E-02 0.12500000E+03</pdfrwt>
<totfact> 0.58579602E+06</totfact>
</mgrwt>
</event>
<event>
 3      1 +1.7592000e+01 1.25000000e+02 7.54677100e-03 1.23506900e-01
       21 -1    0    0  502  501 +0.0000000000e+00 +0.0000000000e+00 +2.5744234288e+02 2.5744234288e+02 0.0000000000e+00 0.0000e+00 -1.0000e+00
       21 -1    0    0  501  502 -0.0000000000e+00 -0.0000000000e+00 -1.5173300383e+01 1.5173300383e+01 0.0000000000e+00 0.0000e+00 -1.0000e+00
       25  1    1    2    0    0 +0.0000000000e+00 +0.0000000000e+00 +2.4226904250e+02 2.7261564327e+02 1.2500000000e+02 0.0000e+00 0.0000e+00
<mgrwt>
<rscale>  0 0.12500000E+03</rscale>
<asrwt>0</asrwt>
<pdfrwt beam="1">  1       21 0.39606511E-01 0.12500000E+03</pdfrwt>
<pdfrwt beam="2">  1       21 0.23343541E-02 0.12500000E+03</pdfrwt>
<totfact> 0.57811569E+06</totfact>
</mgrwt>
</event>
<event>
 3      1 +1.7592000e+01 1.25000000e+02 7.54677100e-03 1.23506900e-01
       21 -1    0    0  502  501 +0.0000000000e+00 +0.0000000000e+00 +1.2320695179e+01 1.2320695179e+01 0.0000000000e+00 0.0000e+00 1.0000e+00
       21 -1    0    0  501  502 -0.0000000000e+00 -0.0000000000e+00 -3.1704785673e+02 3.1704785673e+02 0.0000000000e+00 0.0000e+00 1.0000e+00
       25  1    1    2    0    0 +0.0000000000e+00 +0.0000000000e+00 -3.0472716155e+02 3.2936855191e+02 1.2500000000e+02 0.0000e+00 0.0000e+00
<mgrwt>
<rscale>  0 0.12500000E+03</rscale>
<asrwt>0</asrwt>
<pdfrwt beam="1">  1       21 0.18954917E-02 0.12500000E+03</pdfrwt>
<pdfrwt beam="2">  1       21 0.48776591E-01 0.12500000E+03</pdfrwt>
<totfact> 0.53099185E+06</totfact>
</mgrwt>
</event>
<event>
 3      1 +1.7592000e+01 1.25000000e+02 7.54677100e-03 1.23506900e-01
       21 -1    0    0  502  501 +0.0000000000e+00 +0.0000000000e+00 +4.0642549197e+01 4.0642549197e+01 0.0000000000e+00 0.0000e+00 -1.0000e+00
       21 -1    0    0  501  502 -0.0000000000e+00 -0.0000000000e+00 -9.6112327529e+01 9.6112327529e+01 0.0000000000e+00 0.0000e+00 -1.0000e+00
       25  1    1    2    0    0 +0.0000000000e+00 +0.0000000000e+00 -5.5469778333e+01 1.3675487673e+02 1.2500000000e+02 0.0000e+00 0.0000e+00
<mgrwt>
<rscale>  0 0.12500000E+03</rscale>
<asrwt>0</asrwt>
<pdfrwt beam="1">  1       21 0.62526999E-02 0.12500000E+03</pdfrwt>
<pdfrwt beam="2">  1       21 0.14786512E-01 0.12500000E+03</pdfrwt>
<totfact> 0.72464939E+06</totfact>
</mgrwt>
</event>
<event>
 3      1 +1.7592000e+01 1.25000000e+02 7.54677100e-03 1.23506900e-01
       21 -1    0    0  502  501 +0.0000000000e+00 +0.0000000000e+00 +7.8835475854e+02 7.8835475854e+02 0.0000000000e+00 0.0000e+00 -1.0000e+00
       21 -1    0    0  501  502 -0.0000000000e+00 -0.0000000000e+00 -4.9549393312e+00 4.9549393312e+00 0.0000000000e+00 0.0000e+00 -1.0000e+00
       25  1    1    2    0    0 +0.0000000000e+00 +0.0000000000e+00 +7.8339981921e+02 7.9330969787e+02 1.2500000000e+02 0.0000e+00 0.0000e+00
<mgrwt>
<rscale>  0 0.12500000E+03</rscale>
<asrwt>0</asrwt>
<pdfrwt beam="1">  1       21 0.12128525E+00 0.12500000E+03</pdfrwt>
<pdfrwt beam="2">  1       21 0.76229898E-03 0.12500000E+03</pdfrwt>
<totfact> 0.29585708E+06</totfact>
</mgrwt>
</event>
<event>
 3      1 +1.7592000e+01 1.25000000e+02 7.54677100e-03 1.23506900e-01
       21 -1    0    0  502  501 +0.0000000000e+00 +0.0000000000e+00 +8.8344534266e+01 8.8344534266e+01 0.0000000000e+00 0.0000e+00 1.0000e+00
       21 -1    0    0  501  502 -0.0000000000e+00 -0.0000000000e+00 -4.4216091380e+01 4.4216091380e+01 0.0000000000e+00 0.0000e+00 1.0000e+00
       25  1    1    2    0    0 +0.0000000000e+00 +0.0000000000e+00 +4.4128442886e+01 1.3256062565e+02 1.2500000000e+02 0.0000e+00 0.0000e+00
<mgrwt>
<rscale>  0 0.12500000E+03</rscale>
<asrwt>0</asrwt>
<pdfrwt beam="1">  1       21 0.13591467E-01 0.12500000E+03</pdfrwt>
<pdfrwt beam="2">  1       21 0.68024756E-02 0.12500000E+03</pdfrwt>
<totfact> 0.73021126E+06</totfact>
</mgrwt>
</event>
<event>
 3      1 +1.7592000e+01 1.25000000e+02 7.54677100e-03 1.23506900e-01
       21 -1    0    0  502  501 +0.0000000000e+00 +0.0000000000e+00 +4.3361827400e+01 4.3361827400e+01 0.0000000000e+00 0.0000e+00 1.0000e+00
       21 -1    0    0  501  502 -0.0000000000e+00 -0.0000000000e+00 -9.0084994896e+01 9.0084994896e+01 0.0000000000e+00 0.0000e+00 1.0000e+00
       25  1    1    2    0    0 +0.0000000000e+00 +0.0000000000e+00 -4.6723167496e+01 1.3344682230e+02 1.2500000000e+02 0.0000e+00 0.0000e+00
<mgrwt>
<rscale>  0 0.12500000E+03</rscale>
<asrwt>0</asrwt>
<pdfrwt beam="1">  1       21 0.66710505E-02 0.12500000E+03</pdfrwt>
<pdfrwt beam="2">  1       21 0.13859230E-01 0.12500000E+03</pdfrwt>
<totfact> 0.72902790E+06</totfact>
</mgrwt>
</event>
<event>
 3      1 +1.7592000e+01 1.25000000e+02 7.54677100e-03 1.23506900e-01
       21 -1    0    0  502  501 +0.0000000000e+00 +0.0000000000e+00 +8.7676563796e+01 8.7676563796e+01 0.0000000000e+00 0.0000e+00 1.0000e+00
       21 -1    0    0  501  502 -0.0000000000e+00 -0.0000000000e+00 -4.4552954985e+01 4.4552954985e+01 0.0000000000e+00 0.0000e+00 1.0000e+00
       25  1    1    2    0    0 +0.0000000000e+00 +0.0000000000e+00 +4.3123608811e+01 1.3222951878e+02 1.2500000000e+02 0.0000e+00 0.0000e+00
<mgrwt>
<rscale>  0 0.12500000E+03</rscale>
<asrwt>0</asrwt>
<pdfrwt beam="1">  1       21 0.13488702E-01 0.12500000E+03</pdfrwt>
<pdfrwt beam="2">  1       21 0.68543008E-02 0.12500000E+03</pdfrwt>
<totfact> 0.73065459E+06</totfact>
</mgrwt>
</event>
<event>
 3      1 +1.7592000e+01 1.25000000e+02 7.54677100e-03 1.23506900e-01
       21 -1    0    0  502  501 +0.0000000000e+00 +0.0000000000e+00 +2.7736210583e+03 2.7736210583e+03 0.0000000000e+00 0.0000e+00 -1.0000e+00
       21 -1    0    0  501  502 -0.0000000000e+00 -0.0000000000e+00 -1.4083574929e+00 1.4083574929e+00 0.0000000000e+00 0.0000e+00 -1.0000e+00
       25  1    1    2    0    0 +0.0000000000e+00 +0.0000000000e+00 +2.7722127008e+03 2.7750294158e+03 1.2500000000e+02 0.0000e+00 0.0000e+00
<mgrwt>
<rscale>  0 0.12500000E+03</rscale>
<asrwt>0</asrwt>
<pdfrwt beam="1">  1       21 0.42670656E+00 0.12500000E+03</pdfrwt>
<pdfrwt beam="2">  1       21 0.21667260E-03 0.12500000E+03</pdfrwt>
<totfact> 0.25877458E+05</totfact>
</mgrwt>
</event>
<event>
 3      1 +1.7592000e+01 1.25000000e+02 7.54677100e-03 1.23506900e-01
       21 -1    0    0  502  501 +0.0000000000e+00 +0.0000000000e+00 +5.3173208065e+01 5.3173208065e+01 0.0000000000e+00 0.0000e+00 1.0000e+00
       21 -1    0    0  501  502 -0.0000000000e+00 -0.0000000000e+00 -7.3462748292e+01 7.3462748292e+01 0.0000000000e+00 0.0000e+00 1.0000e+00
       25  1    1    2    0    0 +0.0000000000e+00 +0.0000000000e+00 -2.0289540227e+01 1.2663595636e+02 1.2500000000e+02 0.0000e+00 0.0000e+00
<mgrwt>
<rscale>  0 0.12500000E+03</rscale>
<asrwt>0</asrwt>
<pdfrwt beam="1">  1       21 0.81804936E-02 0.12500000E+03</pdfrwt>
<pdfrwt beam="2">  1       21 0.11301961E-01 0.12500000E+03</pdfrwt>
<totfact> 0.73818782E+06</totfact>
</mgrwt>
</event>
<event>
 3      1 +1.7592000e+01 1.25000000e+02 7.54677100e-03 1.23506900e-01
       21 -1    0    0  502  501 +0.0000000000e+00 +0.0000000000e+00 +3.6946674972e+01 3.6946674972e+01 0.0000000000e+00 0.0000e+00 -1.0000e+00
       21 -1    0    0  501  502 -0.0000000000e+00 -0.0000000000e+00 -1.0572669944e+02 1.0572669944e+02 0.0000000000e+00 0.0000e+00 -1.0000e+00
       25  1    1    2    0    0 +0.0000000000e+00 +0.0000000000e+00 -6.8780024467e+01 1.4267337441e+02 1.2500000000e+02 0.0000e+00 0.0000e+00
<mgrwt>
<rscale>  0 0.12500000E+03</rscale>
<asrwt>0</asrwt>
<pdfrwt beam="1">  1       21 0.56841038E-02 0.12500000E+03</pdfrwt>
<pdfrwt beam="2">  1       21 0.16265646E-01 0.12500000E+03</pdfrwt>
<totfact> 0.71692198E+06</totfact>
</mgrwt>
</event>
<event>
 3      1 +1.7592000e+01 1.25000000e+02 7.54677100e-03 1.23506900e-01
       21 -1    0    0  502  501 +0.0000000000e+00 +0.0000000000e+00 +6.5546261375e+01 6.5546261375e+01 0.0000000000e+00 0.0000e+00 1.0000e+00
       21 -1    0    0  501  502 -0.0000000000e+00 -0.0000000000e+00 -5.9595313571e+01 5.9595313571e+01 0.0000000000e+00 0.0000e+00 1.0000e+00
       25  1    1    2    0    0 +0.0000000000e+00 +0.0000000000e+00 +5.9509478038e+00 1.2514157495e+02 1.2500000000e+02 0.0000e+00 0.0000e+00
<mgrwt>
<rscale>  0 0.12500000E+03</rscale>
<asrwt>0</asrwt>
<pdfrwt beam="1">  1       21 0.10084040E-01 0.12500000E+03</pdfrwt>
<pdfrwt beam="2">  1       21 0.91685098E-02 0.12500000E+03</pdfrwt>
<totfact> 0.74024461E+06</totfact>
</mgrwt>
</event>
<event>
 3      1 +1.7592000e+01 1.25000000e+02 7.54677100e-03 1.23506900e-01
       21 -1    0    0  502  501 +0.0000000000e+00 +0.0000000000e+00 +4.3232411238e+02 4.3232411238e+02 0.0000000000e+00 0.0000e+00 1.0000e+00
       21 -1    0    0  501  502 -0.0000000000e+00 -0.0000000000e+00 -9.0354664200e+00 9.0354664200e+00 0.0000000000e+00 0.0000e+00 1.0000e+00
       25  1    1    2    0    0 +0.0000000000e+00 +0.0000000000e+00 +4.2328864596e+02 4.4135957880e+02 1.2500000000e+02 0.0000e+00 0.0000e+00
<mgrwt>
<rscale>  0 0.12500000E+03</rscale>
<asrwt>0</asrwt>
<pdfrwt beam="1">  1       21 0.66511386E-01 0.12500000E+03</pdfrwt>
<pdfrwt beam="2">  1       21 0.13900721E-02 0.12500000E+03</pdfrwt>
<totfact> 0.45413782E+06</totfact>
</mgrwt>
</event>
<event>
 3      1 +1.7592000e+01 1.25000000e+02 7.54677100e-03 1.23506900e-01
       21 -1    0    0  502  501 +0.0000000000e+00 +0.0000000000e+00 +1.8172855477e+02 1.8172855477e+02 0.0000000000e+00 0.0000e+00 -1.0000e+00
       21 -1    0    0  501  502 -0.0000000000e+00 -0.0000000000e+00 -2.1494970920e+01 2.1494970920e+01 0.0000000000e+00 0.0000e+00 -1.0000e+00
       25  1    1    2    0    0 +0.0000000000e+00 +0.0000000000e+00 +1.6023358385e+02 2.0322352569e+02 1.2500000000e+02 0.0000e+00 0.0000e+00
<mgrwt>
<rscale>  0 0.12500000E+03</rscale>
<asrwt>0</asrwt>
<pdfrwt beam="1">  1       21 0.27958238E-01 0.12500000E+03</pdfrwt>
<pdfrwt beam="2">  1       21 0.33069187E-02 0.12500000E+03</pdfrwt>
<totfact> 0.64579627E+06</totfact>
</mgrwt>
</event>
<event>
 3      1 +1.7592000e+01 1.25000000e+02 7.54677100e-03 1.23506900e-01
       21 -1    0    0  502  501 +0.0000000000e+00 +0.0000000000e+00 +2.9990266351e+01 2.9990266351e+01 0.0000000000e+00 0.0000e+00 1.0000e+00
       21 -1    0    0  501  502 -0.0000000000e+00 -0.0000000000e+00 -1.3025059378e+02 1.3025059378e+02 0.0000000000e+00 0.0000e+00 1.0000e+00
       25  1    1    2    0    0 +0.0000000000e+00 +0.0000000000e+00 -1.0026032743e+02 1.6024086014e+02 1.2500000000e+02 0.0000e+00 0.0000e+00
<mgrwt>
<rscale>  0 0.12500000E+03</rscale>
<asrwt>0</asrwt>
<pdfrwt beam="1">  1       21 0.46138871E-02 0.12500000E+03</pdfrwt>
<pdfrwt beam="2">  1       21 0.20038553E-01 0.12500000E+03</pdfrwt>
<totfact> 0.69490077E+06</totfact>
</mgrwt>
</event>
<event>
 3      1 +1.7592000e+01 1.25000000e+02 7.54677100e-03 1.23506900e-01
       21 -1    0    0  502  501 +0.0000000000e+00 +0.0000000000e+00 +8.0966088364e+01 8.0966088364e+01 0.0000000000e+00 0.0000e+00 1.0000e+00
       21 -1    0    0  501  502 -0.0000000000e+00 -0.0000000000e+00 -4.8245507211e+01 4.8245507211e+01 0.0000000000e+00 0.0000e+00 1.0000e+00
       25  1    1    2    0    0 +0.0000000000e+00 +0.0000000000e+00 +3.2720581153e+01 1.2921159557e+02 1.2500000000e+02 0.0000e+00 0.0000e+00
<mgrwt>
<rscale>  0 0.12500000E+03</rscale>
<asrwt>0</asrwt>
<pdfrwt beam="1">  1       21 0.12456321E-01 0.12500000E+03</pdfrwt>
<pdfrwt beam="2">  1       21 0.74223857E-02 0.12500000E+03</pdfrwt>
<totfact> 0.73470479E+06</totfact>
</mgrwt>
</event>
<event>
 3      1 +1.7592000e+01 1.25000000e+02 7.54677100e-03 1.23506900e-01
       21 -1    0    0  502  501 +0.0000000000e+00 +0.0000000000e+00 +2.3334644595e+01 2.3334644595e+01 0.0000000000e+00 0.0000e+00 1.0000e+00
       21 -1    0    0  501  502 -0.0000000000e+00 -0.0000000000e+00 -1.6740130684e+02 1.6740130684e+02 0.0000000000e+00 0.0000e+00 1.0000e+00
       25  1    1    2    0    0 +0.0000000000e+00 +0.0000000000e+00 -1.4406666225e+02 1.9073595144e+02 1.2500000000e+02 0.0000e+00 0.0000e+00
<mgrwt>
<rscale>  0 0.12500000E+03</rscale>
<asrwt>0</asrwt>
<pdfrwt beam="1">  1       21 0.35899454E-02 0.12500000E+03</pdfrwt>
<pdfrwt beam="2">  1       21 0.25754047E-01 0.12500000E+03</pdfrwt>
<totfact> 0.65940763E+06</totfact>
</mgrwt>
</event>
<event>
 3      1 +1.7592000e+01 1.25000000e+02 7.54677100e-03 1.23506900e-01
       21 -1    0    0  502  501 +0.0000000000e+00 +0.0000000000e+00 +3.6979902144e+01 3.6979902144e+01 0.0000000000e+00 0.0000e+00 -1.0000e+00
       21 -1    0    0  501  502 -0.0000000000e+00 -0.0000000000e+00 -1.0563170191e+02 1.0563170191e+02 0.0000000000e+00 0.0000e+00 -1.0000e+00
       25  1    1    2    0    0 +0.0000000000e+00 +0.0000000000e+00 -6.8651799766e+01 1.4261160406e+02 1.2500000000e+02 0.0000e+00 0.0000e+00
<mgrwt>
<rscale>  0 0.12500000E+03</rscale>
<asrwt>0</asrwt>
<pdfrwt beam="1">  1       21 0.56892159E-02 0.12500000E+03</pdfrwt>
<pdfrwt beam="2">  1       21 0.16251030E-01 0.12500000E+03</pdfrwt>
<totfact> 0.71700176E+06</totfact>
</mgrwt>
</event>
<event>
 3      1 +1.7592000e+01 1.25000000e+02 7.54677100e-03 1.23506900e-01
       21 -1    0    0  502  501 +0.0000000000e+00 +0.0000000000e+00 +2.2460758317e+03 2.2460758317e+03 0.0000000000e+00 0.0000e+00 1.0000e+00
       21 -1    0    0  501  502 -0.0000000000e+00 -0.0000000000e+00 -1.7391443089e+00 1.7391443089e+00 0.0000000000e+00 0.0000e+00 1.0000e+00
       25  1    1    2    0    0 +0.0000000000e+00 +0.0000000000e+00 +2.2443366874e+03 2.2478149760e+03 1.2500000000e+02 0.0000e+00 0.0000e+00
<mgrwt>
<rscale>  0 0.12500000E+03</rscale>
<asrwt>0</asrwt>
<pdfrwt beam="1">  1       21 0.34554781E+00 0.12500000E+03</pdfrwt>
<pdfrwt beam="2">  1       21 0.26756246E-03 0.12500000E+03</pdfrwt>
<totfact> 0.57742618E+05</totfact>
</mgrwt>
</event>
<event>
 3      1 +1.7592000e+01 1.25000000e+02 7.54677100e-03 1.23506900e-01
       21 -1    0    0  502  501 +0.0000000000e+00 +0.0000000000e+00 +1.5045998544e+03 1.5045998544e+03 0.0000000000e+00 0.0000e+00 1.0000e+00
       21 -1    0    0  501  502 -0.0000000000e+00 -0.0000000000e+00 -2.5962052226e+00 2.5962052226e+00 0.0000000000e+00 0.0000e+00 1.0000e+00
       25  1    1    2    0    0 +0.0000000000e+00 +0.0000000000e+00 +1.5020036492e+03 1.5071960597e+03 1.2500000000e+02 0.0000e+00 0.0000e+00
<mgrwt>
<rscale>  0 0.12500000E+03</rscale>
<asrwt>0</asrwt>
<pdfrwt beam="1">  1       21 0.23147620E+00 0.12500000E+03</pdfrwt>
<pdfrwt beam="2">  1       21 0.39941739E-03 0.12500000E+03</pdfrwt>
<totfact> 0.13886665E+06</totfact>
</mgrwt>
</event>
<event>
 3      1 +1.7592000e+01 1.25000000e+02 7.54677100e-03 1.23506900e-01
       21 -1    0    0  502  501 +0.0000000000e+00 +0.0000000000e+00 +3.1957335159e+01 3.1957335159e+01 0.0000000000e+00 0.0000e+00 -1.0000e+00
       21 -1    0    0  501  502 -0.0000000000e+00 -0.0000000000e+00 -1.2223328324e+02 1.2223328324e+02 0.0000000000e+00 0.0000e+00 -1.0000e+00
       25  1    1    2    0    0 +0.0000000000e+00 +0.0000000000e+00 -9.0275948076e+01 1.5419061840e+02 1.2500000000e+02 0.0000e+00 0.0000e+00
<mgrwt>
<rscale>  0 0.12500000E+03</rscale>
<asrwt>0</asrwt>
<pdfrwt beam="1">  1       21 0.49165132E-02 0.12500000E+03</pdfrwt>
<pdfrwt beam="2">  1       21 0.18805120E-01 0.12500000E+03</pdfrwt>
<totfact> 0.70236394E+06</totfact>
</mgrwt>
</event>
<event>
 3      1 +1.7592000e+01 1.25000000e+02 7.54677100e-03 1.23506900e-01
       21 -1    0    0  502  501 +0.0000000000e+00 +0.0000000000e+00 +1.9985041115e+01 1.9985041115e+01 0.0000000000e+00 0.0000e+00 -1.0000e+00
       21 -1    0    0  501  502 -0.0000000000e+00 -0.0000000000e+00 -1.9545869221e+02 1.9545869221e+02 0.0000000000e+00 0.0000e+00 -1.0000e+00
       25  1    1    2    0    0 +0.0000000000e+00 +0.0000000000e+00 -1.7547365109e+02 2.1544373332e+02 1.2500000000e+02 0.0000e+00 0.0000e+00
<mgrwt>
<rscale>  0 0.12500000E+03</rscale>
<asrwt>0</asrwt>
<pdfrwt beam="1">  1       21 0.30746217E-02 0.12500000E+03</pdfrwt>
<pdfrwt beam="2">  1       21 0.30070568E-01 0.12500000E+03</pdfrwt>
<totfact> 0.63291305E+06</totfact>
</mgrwt>
</event>
<event>
 3      1 +1.7592000e+01 1.25000000e+02 7.54677100e-03 1.23506900e-01
       21 -1    0    0  502  501 +0.0000000000e+00 +0.0000000000e+00 +6.6279598755e+02 6.6279598755e+02 0.0000000000e+00 0.0000e+00 -1.0000e+00
       21 -1    0    0  501  502 -0.0000000000e+00 -0.0000000000e+00 -5.8935933129e+00 5.8935933129e+00 0.0000000000e+00 0.0000e+00 -1.0000e+00
       25  1    1    2    0    0 +0.0000000000e+00 +0.0000000000e+00 +6.5690239423e+02 6.6868958086e+02 1.2500000000e+02 0.0000e+00 0.0000e+00
<mgrwt>
<rscale>  0 0.12500000E+03</rscale>
<asrwt>0</asrwt>
<pdfrwt beam="1">  1       21 0.10196855E+00 0.12500000E+03</pdfrwt>
<pdfrwt beam="2">  1       21 0.90670719E-03 0.12500000E+03</pdfrwt>
<totfact> 0.34152551E+06</totfact>
</mgrwt>
</event>
<event>
 3      1 +1.7592000e+01 1.25000000e+02 7.54677100e-03 1.23506900e-01
       21 -1    0    0  502  501 +0.0000000000e+00 +0.0000000000e+00 +1.6610185597e+03 1.6610185597e+03 0.0000000000e+00 0.0000e+00 -1.0000e+00
       21 -1    0    0  501  502 -0.0000000000e+00 -0.0000000000e+00 -2.3517196585e+00 2.3517196585e+00 0.0000000000e+00 0.0000e+00 -1.0000e+00
       25  1    1    2    0    0 +0.0000000000e+00 +0.0000000000e+00 +1.6586668401e+03 1.6633702794e+03 1.2500000000e+02 0.0000e+00 0.0000e+00
<mgrwt>
<rscale>  0 0.12500000E+03</rscale>
<asrwt>0</asrwt>
<pdfrwt beam="1">  1       21 0.25554038E+00 0.12500000E+03</pdfrwt>
<pdfrwt beam="2">  1       21 0.36180435E-03 0.12500000E+03</pdfrwt>
<totfact> 0.11734627E+06</totfact>
</mgrwt>
</event>
<event>
 3      1 +1.7592000e+01 1.25000000e+02 7.54677100e-03 1.23506900e-01
       21 -1    0    0  502  501 +0.0000000000e+00 +0.0000000000e+00 +1.9678411708e+01 1.9678411708e+01 0.0000000000e+00 0.0000e+00 -1.0000e+00
       21 -1    0    0  501  502 -0.0000000000e+00 -0.0000000000e+00 -1.9850433348e+02 1.9850433348e+02 0.0000000000e+00 0.0000e+00 -1.0000e+00
       25  1    1    2    0    0 +0.0000000000e+00 +0.0000000000e+00 -1.7882592177e+02 2.1818274518e+02 1.2500000000e+02 0.0000e+00 0.0000e+00
<mgrwt>
<rscale>  0 0.12500000E+03</rscale>
<asrwt>0</asrwt>
<pdfrwt beam="1">  1       21 0.30274479E-02 0.12500000E+03</pdfrwt>
<pdfrwt beam="2">  1       21 0.30539129E-01 0.12500000E+03</pdfrwt>
<totfact> 0.63008767E+06</totfact>
</mgrwt>
</event>
<event>
 3      1 +1.7592000e+01 1.25000000e+02 7.54677100e-03 1.23506900e-01
       21 -1    0    0  502  501 +0.0000000000e+00 +0.0000000000e+00 +1.0232482231e+02 1.0232482231e+02 0.0000000000e+00 0.0000e+00 -1.0000e+00
       21 -1    0    0  501  502 -0.0000000000e+00 -0.0000000000e+00 -3.8174999105e+01 3.8174999105e+01 0.0000000000e+00 0.0000e+00 -1.0000e+00
       25  1    1    2    0    0 +0.0000000000e+00 +0.0000000000e+00 +6.4149823202e+01 1.4049982141e+02 1.2500000000e+02 0.0000e+00 0.0000e+00
<mgrwt>
<rscale>  0 0.12500000E+03</rscale>
<asrwt>0</asrwt>
<pdfrwt beam="1">  1       21 0.15742280E-01 0.12500000E+03</pdfrwt>
<pdfrwt beam="2">  1       21 0.58730769E-02 0.12500000E+03</pdfrwt>
<totfact> 0.71974125E+06</totfact>
</mgrwt>
</event>
<event>
 3      1 +1.7592000e+01 1.25000000e+02 7.54677100e-03 1.23506900e-01
       21 -1    0    0  502  501 +0.0000000000e+00 +0.0000000000e+00 +1.8954804104e+02 1.8954804104e+02 0.0000000000e+00 0.0000e+00 1.0000e+00
       21 -1    0    0  501  502 -0.0000000000e+00 -0.0000000000e+00 -2.0608231974e+01 2.0608231974e+01 0.0000000000e+00 0.0000e+00 1.0000e+00
       25  1    1    2    0    0 +0.0000000000e+00 +0.0000000000e+00 +1.6893980907e+02 2.1015627301e+02 1.2500000000e+02 0.0000e+00 0.0000e+00
<mgrwt>
<rscale>  0 0.12500000E+03</rscale>
<asrwt>0</asrwt>
<pdfrwt beam="1">  1       21 0.29161236E-01 0.12500000E+03</pdfrwt>
<pdfrwt beam="2">  1       21 0.31704973E-02 0.12500000E+03</pdfrwt>
<totfact> 0.63843098E+06</totfact>
</mgrwt>
</event>
<event>
 3      1 +1.7592000e+01 1.25000000e+02 7.54677100e-03 1.23506900e-01
       21 -1    0    0  502  501 +0.0000000000e+00 +0.0000000000e+00 +3.9086214929e+01 3.9086214929e+01 0.0000000000e+00 0.0000e+00 -1.0000e+00
       21 -1    0    0  501  502 -0.0000000000e+00 -0.0000000000e+00 -9.9939326616e+01 9.9939326616e+01 0.0000000000e+00 0.0000e+00 -1.0000e+00
       25  1    1    2    0    0 +0.0000000000e+00 +0.0000000000e+00 -6.0853111687e+01 1.3902554155e+02 1.2500000000e+02 0.0000e+00 0.0000e+00
<mgrwt>
<rscale>  0 0.12500000E+03</rscale>
<asrwt>0</asrwt>
<pdfrwt beam="1">  1       21 0.60132639E-02 0.12500000E+03</pdfrwt>
<pdfrwt beam="2">  1       21 0.15375281E-01 0.12500000E+03</pdfrwt>
<totfact> 0.72166778E+06</totfact>
</mgrwt>
</event>
<event>
 3      1 +1.7592000e+01 1.25000000e+02 7.54677100e-03 1.23506900e-01
       21 -1    0    0  502  501 +0.0000000000e+00 +0.0000000000e+00 +6.4639434602e+02 6.4639434602e+02 0.0000000000e+00 0.0000e+00 1.0000e+00
       21 -1    0    0  501  502 -0.0000000000e+00 -0.0000000000e+00 -6.0431376358e+00 6.0431376358e+00 0.0000000000e+00 0.0000e+00 1.0000e+00
       25  1    1    2    0    0 +0.0000000000e+00 +0.0000000000e+00 +6.4035120838e+02 6.5243748365e+02 1.2500000000e+02 0.0000e+00 0.0000e+00
<mgrwt>
<rscale>  0 0.12500000E+03</rscale>
<asrwt>0</asrwt>
<pdfrwt beam="1">  1       21 0.99445229E-01 0.12500000E+03</pdfrwt>
<pdfrwt beam="2">  1       21 0.92971399E-03 0.12500000E+03</pdfrwt>
<totfact> 0.34823377E+06</totfact>
</mgrwt>
</event>
<event>
 3      1 +1.7592000e+01 1.25000000e+02 7.54677100e-03 1.23506900e-01
       21 -1    0    0  502  501 +0.0000000000e+00 +0.0000000000e+00 +3.6167568679e+00 3.6167568679e+00 0.0000000000e+00 0.0000e+00 -1.0000e+00
       21 -1    0    0  501  502 -0.0000000000e+00 -0.0000000000e+00 -1.0800421877e+03 1.0800421877e+03 0.0000000000e+00 0.0000e+00 -1.0000e+00
       25  1    1    2    0    0 +0.0000000000e+00 +0.0000000000e+00 -1.0764254308e+03 1.0836589446e+03 1.2500000000e+02 0.0000e+00 0.0000e+00
<mgrwt>
<rscale>  0 0.12500000E+03</rscale>
<asrwt>0</asrwt>
<pdfrwt beam="1">  1       21 0.55642312E-03 0.12500000E+03</pdfrwt>
<pdfrwt beam="2">  1       21 0.16616064E+00 0.12500000E+03</pdfrwt>
<totfact> 0.21618490E+06</totfact>
</mgrwt>
</event>
<event>
 3      1 +1.7592000e+01 1.25000000e+02 7.54677100e-03 1.23506900e-01
       21 -1    0    0  502  501 +0.0000000000e+00 +0.0000000000e+00 +2.0925866112e+01 2.0925866112e+01 0.0000000000e+00 0.0000e+00 -1.0000e+00
       21 -1    0    0  501  502 -0.0000000000e+00 -0.0000000000e+00 -1.8667088756e+02 1.8667088756e+02 0.0000000000e+00 0.0000e+00 -1.0000e+00
       25  1    1    2    0    0 +0.0000000000e+00 +0.0000000000e+00 -1.6574502145e+02 2.0759675367e+02 1.2500000000e+02 0.0000e+00 0.0000e+00
<mgrwt>
<rscale>  0 0.12500000E+03</rscale>
<asrwt>0</asrwt>
<pdfrwt beam="1">  1       21 0.32193641E-02 0.12500000E+03</pdfrwt>
<pdfrwt beam="2">  1       21 0.28718598E-01 0.12500000E+03</pdfrwt>
<totfact> 0.64113275E+06</totfact>
</mgrwt>
</event>
<event>
 3      1 +1.7592000e+01 1.25000000e+02 7.54677100e-03 1.23506900e-01
       21 -1    0    0  502  501 +0.0000000000e+00 +0.0000000000e+00 +3.4418374507e+01 3.4418374507e+01 0.0000000000e+00 0.0000e+00 -1.0000e+00
       21 -1    0    0  501  502 -0.0000000000e+00 -0.0000000000e+00 -1.1349315754e+02 1.1349315754e+02 0.0000000000e+00 0.0000e+00 -1.0000e+00
       25  1    1    2    0    0 +0.0000000000e+00 +0.0000000000e+00 -7.9074783029e+01 1.4791153204e+02 1.2500000000e+02 0.0000e+00 0.0000e+00
<mgrwt>
<rscale>  0 0.12500000E+03</rscale>
<asrwt>0</asrwt>
<pdfrwt beam="1">  1       21 0.52951345E-02 0.12500000E+03</pdfrwt>
<pdfrwt beam="2">  1       21 0.17460486E-01 0.12500000E+03</pdfrwt>
<totfact> 0.71022546E+06</totfact>
</mgrwt>
</event>
<event>
 3      1 +1.7592000e+01 1.25000000e+02 7.54677100e-03 1.23506900e-01
       21 -1    0    0  502  501 +0.0000000000e+00 +0.0000000000e+00 +3.7355354863e+00 3.7355354863e+00 0.0000000000e+00 0.0000e+00 -1.0000e+00
       21 -1    0    0  501  502 -0.0000000000e+00 -0.0000000000e+00 -1.0457001451e+03 1.0457001451e+03 0.0000000000e+00 0.0000e+00 -1.0000e+00
       25  1    1    2    0    0 +0.0000000000e+00 +0.0000000000e+00 -1.0419646096e+03 1.0494356806e+03 1.2500000000e+02 0.0000e+00 0.0000e+00
<mgrwt>
<rscale>  0 0.12500000E+03</rscale>
<asrwt>0</asrwt>
<pdfrwt beam="1">  1       21 0.57469759E-03 0.12500000E+03</pdfrwt>
<pdfrwt beam="2">  1       21 0.16087699E+00 0.12500000E+03</pdfrwt>
<totfact> 0.22412382E+06</totfact>
</mgrwt>
</event>
<event>
 3      1 +1.7592000e+01 1.25000000e+02 7.54677100e-03 1.23506900e-01
       21 -1    0    0  502  501 +0.0000000000e+00 +0.0000000000e+00 +3.4482671658e+01 3.4482671658e+01 0.0000000000e+00 0.0000e+00 1.0000e+00
       21 -1    0    0  501  502 -0.0000000000e+00 -0.0000000000e+00 -1.1328153569e+02 1.1328153569e+02 0.0000000000e+00 0.0000e+00 1.0000e+00
       25  1    1    2    0    0 +0.0000000000e+00 +0.0000000000e+00 -7.8798864031e+01 1.4776420735e+02 1.2500000000e+02 0.0000e+00 0.0000e+00
<mgrwt>
<rscale>  0 0.12500000E+03</rscale>
<asrwt>0</asrwt>
<pdfrwt beam="1">  1       21 0.53050264E-02 0.12500000E+03</pdfrwt>
<pdfrwt beam="2">  1       21 0.17427929E-01 0.12500000E+03</pdfrwt>
<totfact> 0.71041199E+06</totfact>
</mgrwt>
</event>
<event>
 3      1 +1.7592000e+01 1.25000000e+02 7.54677100e-03 1.23506900e-01
       21 -1    0    0  502  501 +0.0000000000e+00 +0.0000000000e+00 +7.9338761904e+01 7.9338761904e+01 0.0000000000e+00 0.0000e+00 -1.0000e+00
       21 -1    0    0  501  502 -0.0000000000e+00 -0.0000000000e+00 -4.9235076352e+01 4.9235076352e+01 0.0000000000e+00 0.0000e+00 -1.0000e+00
       25  1    1    2    0    0 +0.0000000000e+00 +0.0000000000e+00 +3.0103685552e+01 1.2857383826e+02 1.2500000000e+02 0.0000e+00 0.0000e+00
<mgrwt>
<rscale>  0 0.12500000E+03</rscale>
<asrwt>0</asrwt>
<pdfrwt beam="1">  1       21 0.12205963E-01 0.12500000E+03</pdfrwt>
<pdfrwt beam="2">  1       21 0.75746272E-02 0.12500000E+03</pdfrwt>
<totfact> 0.73556180E+06</totfact>
</mgrwt>
</event>
<event>
 3      1 +1.7592000e+01 1.25000000e+02 7.54677100e-03 1.23506900e-01
       21 -1    0    0  502  501 +0.0000000000e+00 +0.0000000000e+00 +6.3470053651e+01 6.3470053651e+01 0.0000000000e+00 0.0000e+00 -1.0000e+00
       21 -1    0    0  501  502 -0.0000000000e+00 -0.0000000000e+00 -6.1544772303e+01 6.1544772303e+01 0.0000000000e+00 0.0000e+00 -1.0000e+00
       25  1    1    2    0    0 +0.0000000000e+00 +0.0000000000e+00 +1.9252813482e+00 1.2501482595e+02 1.2500000000e+02 0.0000e+00 0.0000e+00
<mgrwt>
<rscale>  0 0.12500000E+03</rscale>
<asrwt>0</asrwt>
<pdfrwt beam="1">  1       21 0.97646237E-02 0.12500000E+03</pdfrwt>
<pdfrwt beam="2">  1       21 0.94684265E-02 0.12500000E+03</pdfrwt>
<totfact> 0.74041579E+06</totfact>
</mgrwt>
</event>
<event>
 3      1 +1.7592000e+01 1.25000000e+02 7.54677100e-03 1.23506900e-01
       21 -1    0    0  502  501 +0.0000000000e+00 +0.0000000000e+00 +4.3986483528e+01 4.3986483528e+01 0.0000000000e+00 0.0000e+00 1.0000e+00
       21 -1    0    0  501  502 -0.0000000000e+00 -0.0000000000e+00 -8.8805689538e+01 8.8805689538e+01 0.0000000000e+00 0.0000e+00 1.0000e+00
       25  1    1    2    0    0 +0.0000000000e+00 +0.0000000000e+00 -4.4819206010e+01 1.3279217307e+02 1.2500000000e+02 0.0000e+00 0.0000e+00
<mgrwt>
<rscale>  0 0.12500000E+03</rscale>
<asrwt>0</asrwt>
<pdfrwt beam="1">  1       21 0.67671513E-02 0.12500000E+03</pdfrwt>
<pdfrwt beam="2">  1       21 0.13662414E-01 0.12500000E+03</pdfrwt>
<totfact> 0.72990163E+06</totfact>
</mgrwt>
</event>
<event>
 3      1 +1.7592000e+01 1.25000000e+02 7.54677100e-03 1.23506900e-01
       21 -1    0    0  502  501 +0.0000000000e+00 +0.0000000000e+00 +5.1946470454e+00 5.1946470454e+00 0.0000000000e+00 0.0000e+00 -1.0000e+00
       21 -1    0    0  501  502 -0.0000000000e+00 -0.0000000000e+00 -7.5197601798e+02 7.5197601798e+02 0.0000000000e+00 0.0000e+00 -1.0000e+00
       25  1    1    2    0    0 +0.0000000000e+00 +0.0000000000e+00 -7.4678137093e+02 7.5717066502e+02 1.2500000000e+02 0.0000e+00 0.0000e+00
<mgrwt>
<rscale>  0 0.12500000E+03</rscale>
<asrwt>0</asrwt>
<pdfrwt beam="1">  1       21 0.79917623E-03 0.12500000E+03</pdfrwt>
<pdfrwt beam="2">  1       21 0.11568865E+00 0.12500000E+03</pdfrwt>
<totfact> 0.30818242E+06</totfact>
</mgrwt>
</event>
<event>
 3      1 +1.7592000e+01 1.25000000e+02 7.54677100e-03 1.23506900e-01
       21 -1    0    0  502  501 +0.0000000000e+00 +0.0000000000e+00 +5.4707197808e+01 5.4707197808e+01 0.0000000000e+00 0.0000e+00 1.0000e+00
       21 -1    0    0  501  502 -0.0000000000e+00 -0.0000000000e+00 -7.1402852942e+01 7.1402852942e+01 0.0000000000e+00 0.0000e+00 1.0000e+00
       25  1    1    2    0    0 +0.0000000000e+00 +0.0000000000e+00 -1.6695655134e+01 1.2611005075e+02 1.2500000000e+02 0.0000e+00 0.0000e+00
<mgrwt>
<rscale>  0 0.12500000E+03</rscale>
<asrwt>0</asrwt>
<pdfrwt beam="1">  1       21 0.84164919E-02 0.12500000E+03</pdfrwt>
<pdfrwt beam="2">  1       21 0.10985054E-01 0.12500000E+03</pdfrwt>
<totfact> 0.73890879E+06</totfact>
</mgrwt>
</event>
<event>
 3      1 +1.7592000e+01 1.25000000e+02 7.54677100e-03 1.23506900e-01
       21 -1    0    0  502  501 +0.0000000000e+00 +0.0000000000e+00 +1.0751674713e+01 1.0751674713e+01 0.0000000000e+00 0.0000e+00 1.0000e+00
       21 -1    0    0  501  502 -0.0000000000e+00 -0.0000000000e+00 -3.6331549310e+02 3.6331549310e+02 0.0000000000e+00 0.0000e+00 1.0000e+00
       25  1    1    2    0    0 +0.0000000000e+00 +0.0000000000e+00 -3.5256381839e+02 3.7406716782e+02 1.2500000000e+02 0.0000e+00 0.0000e+00
<mgrwt>
<rscale>  0 0.12500000E+03</rscale>
<asrwt>0</asrwt>
<pdfrwt beam="1">  1       21 0.16541037E-02 0.12500000E+03</pdfrwt>
<pdfrwt beam="2">  1       21 0.55894695E-01 0.12500000E+03</pdfrwt>
<totfact> 0.49808651E+06</totfact>
</mgrwt>
</event>
<event>
 3      1 +1.7592000e+01 1.25000000e+02 7.54677100e-03 1.23506900e-01
       21 -1    0    0  502  501 +0.0000000000e+00 +0.0000000000e+00 +3.1210483033e+02 3.1210483033e+02 0.0000000000e+00 0.0000e+00 -1.0000e+00
       21 -1    0    0  501  502 -0.0000000000e+00 -0.0000000000e+00 -1.2515826800e+01 1.2515826800e+01 0.0000000000e+00 0.0000e+00 -1.0000e+00
       25  1    1    2    0    0 +0.0000000000e+00 +0.0000000000e+00 +2.9958900353e+02 3.2462065713e+02 1.2500000000e+02 0.0000e+00 0.0000e+00
<mgrwt>
<rscale>  0 0.12500000E+03</rscale>
<asrwt>0</asrwt>
<pdfrwt beam="1">  1       21 0.48016122E-01 0.12500000E+03</pdfrwt>
<pdfrwt beam="2">  1       21 0.19255121E-02 0.12500000E+03</pdfrwt>
<totfact> 0.53469201E+06</totfact>
</mgrwt>
</event>
<event>
 3      1 +1.7592000e+01 1.25000000e+02 7.54677100e-03 1.23506900e-01
       21 -1    0    0  502  501 +0.0000000000e+00 +0.0000000000e+00 +1.3202396047e+01 1.3202396047e+01 0.0000000000e+00 0.0000e+00 -1.0000e+00
       21 -1    0    0  501  502 -0.0000000000e+00 -0.0000000000e+00 -2.9587432358e+02 2.9587432358e+02 0.0000000000e+00 0.0000e+00 -1.0000e+00
       25  1    1    2    0    0 +0.0000000000e+00 +0.0000000000e+00 -2.8267192753e+02 3.0907671962e+02 1.2500000000e+02 0.0000e+00 0.0000e+00
<mgrwt>
<rscale>  0 0.12500000E+03</rscale>
<asrwt>0</asrwt>
<pdfrwt beam="1">  1       21 0.20311381E-02 0.12500000E+03</pdfrwt>
<pdfrwt beam="2">  1       21 0.45519120E-01 0.12500000E+03</pdfrwt>
<totfact> 0.54710201E+06</totfact>
</mgrwt>
</event>
<event>
 3      1 +1.7592000e+01 1.25000000e+02 7.54677100e-03 1.23506900e-01
       21 -1    0    0  502  501 +0.0000000000e+00 +0.0000000000e+00 +7.0045069569e+01 7.0045069569e+01 0.0000000000e+00 0.0000e+00 -1.0000e+00
       21 -1    0    0  501  502 -0.0000000000e+00 -0.0000000000e+00 -5.5767665363e+01 5.5767665363e+01 0.0000000000e+00 0.0000e+00 -1.0000e+00
       25  1    1    2    0    0 +0.0000000000e+00 +0.0000000000e+00 +1.4277404206e+01 1.2581273493e+02 1.2500000000e+02 0.0000e+00 0.0000e+00
<mgrwt>
<rscale>  0 0.12500000E+03</rscale>
<asrwt>0</asrwt>
<pdfrwt beam="1">  1       21 0.10776165E-01 0.12500000E+03</pdfrwt>
<pdfrwt beam="2">  1       21 0.85796408E-02 0.12500000E+03</pdfrwt>
<totfact> 0.73931909E+06</totfact>
</mgrwt>
</event>
<event>
 3      1 +1.7592000e+01 1.25000000e+02 7.54677100e-03 1.23506900e-01
       21 -1    0    0  502  501 +0.0000000000e+00 +0.0000000000e+00 +9.9510000231e+02 9.9510000231e+02 0.0000000000e+00 0.0000e+00 -1.0000e+00
       21 -1    0    0  501  502 -0.0000000000e+00 -0.0000000000e+00 -3.9254848668e+00 3.9254848668e+00 0.0000000000e+00 0.0000e+00 -1.0000e+00
       25  1    1    2    0    0 +0.0000000000e+00 +0.0000000000e+00 +9.9117451744e+02 9.9902548717e+02 1.2500000000e+02 0.0000e+00 0.0000e+00
<mgrwt>
<rscale>  0 0.12500000E+03</rscale>
<asrwt>0</asrwt>
<pdfrwt beam="1">  1       21 0.15309211E+00 0.12500000E+03</pdfrwt>
<pdfrwt beam="2">  1       21 0.60392154E-03 0.12500000E+03</pdfrwt>
<totfact> 0.23643080E+06</totfact>
</mgrwt>
</event>
<event>
 3      1 +1.7592000e+01 1.25000000e+02 7.54677100e-03 1.23506900e-01
       21 -1    0    0  502  501 +0.0000000000e+00 +0.0000000000e+00 +1.6677200465e+02 1.6677200465e+02 0.0000000000e+00 0.0000e+00 -1.0000e+00
       21 -1    0    0  501  502 -0.0000000000e+00 -0.0000000000e+00 -2.3422696203e+01 2.3422696203e+01 0.0000000000e+00 0.0000e+00 -1.0000e+00
       25  1    1    2    0    0 +0.0000000000e+00 +0.0000000000e+00 +1.4334930845e+02 1.9019470085e+02 1.2500000000e+02 0.0000e+00 0.0000e+00
<mgrwt>
<rscale>  0 0.12500000E+03</rscale>
<asrwt>0</asrwt>
<pdfrwt beam="1">  1       21 0.25657231E-01 0.12500000E+03</pdfrwt>
<pdfrwt beam="2">  1       21 0.36034918E-02 0.12500000E+03</pdfrwt>
<totfact> 0.66000832E+06</totfact>
</mgrwt>
</event>
<event>
 3      1 +1.7592000e+01 1.25000000e+02 7.54677100e-03 1.23506900e-01
       21 -1    0    0  502  501 +0.0000000000e+00 +0.0000000000e+00 +7.3385970438e+00 7.3385970438e+00 0.0000000000e+00 0.0000e+00 1.0000e+00
       21 -1    0    0  501  502 -0.0000000000e+00 -0.0000000000e+00 -5.3228838928e+02 5.3228838928e+02 0.0000000000e+00 0.0000e+00 1.0000e+00
       25  1    1    2    0    0 +0.0000000000e+00 +0.0000000000e+00 -5.2494979223e+02 5.3962698632e+02 1.2500000000e+02 0.0000e+00 0.0000e+00
<mgrwt>
<rscale>  0 0.12500000E+03</rscale>
<asrwt>0</asrwt>
<pdfrwt beam="1">  1       21 0.11290147E-02 0.12500000E+03</pdfrwt>
<pdfrwt beam="2">  1       21 0.81890540E-01 0.12500000E+03</pdfrwt>
<totfact> 0.39973439E+06</totfact>
</mgrwt>
</event>
<event>
 3      1 +1.7592000e+01 1.25000000e+02 7.54677100e-03 1.23506900e-01
       21 -1    0    0  502  501 +0.0000000000e+00 +0.0000000000e+00 +2.6612456664e+02 2.6612456664e+02 0.0000000000e+00 0.0000e+00 1.0000e+00
       21 -1    0    0  501  502 -0.0000000000e+00 -0.0000000000e+00 -1.4678276603e+01 1.4678276603e+01 0.0000000000e+00 0.0000e+00 1.0000e+00
       25  1    1    2    0    0 +0.0000000000e+00 +0.0000000000e+00 +2.5144629004e+02 2.8080284325e+02 1.2500000000e+02 0.0000e+00 0.0000e+00
<mgrwt>
<rscale>  0 0.12500000E+03</rscale>
<asrwt>0</asrwt>
<pdfrwt beam="1">  1       21 0.40942237E-01 0.12500000E+03</pdfrwt>
<pdfrwt beam="2">  1       21 0.22581966E-02 0.12500000E+03</pdfrwt>
<totfact> 0.57090247E+06</totfact>
</mgrwt>
</event>
<event>
 3      1 +1.7592000e+01 1.25000000e+02 7.54677100e-03 1.23506900e-01
       21 -1    0    0  502  501 +0.0000000000e+00 +0.0000000000e+00 +2.4512716242e+02 2.4512716242e+02 0.0000000000e+00 0.0000e+00 -1.0000e+00
       21 -1    0    0  501  502 -0.0000000000e+00 -0.0000000000e+00 -1.5935606489e+01 1.5935606489e+01 0.0000000000e+00 0.0000e+00 -1.0000e+00
       25  1    1    2    0    0 +0.0000000000e+00 +0.0000000000e+00 +2.2919155593e+02 2.6106276891e+02 1.2500000000e+02 0.0000e+00 0.0000e+00
<mgrwt>
<rscale>  0 0.12500000E+03</rscale>
<asrwt>0</asrwt>
<pdfrwt beam="1">  1       21 0.37711868E-01 0.12500000E+03</pdfrwt>
<pdfrwt beam="2">  1       21 0.24516320E-02 0.12500000E+03</pdfrwt>
<totfact> 0.58852000E+06</totfact>
</mgrwt>
</event>
<event>
 3      1 +1.7592000e+01 1.25000000e+02 7.54677100e-03 1.23506900e-01
       21 -1    0    0  502  501 +0.0000000000e+00 +0.0000000000e+00 +3.2386949335e+02 3.2386949335e+02 0.0000000000e+00 0.0000e+00 1.0000e+00
       21 -1    0    0  501  502 -0.0000000000e+00 -0.0000000000e+00 -1.2061185385e+01 1.2061185385e+01 0.0000000000e+00 0.0000e+00 1.0000e+00
       25  1    1    2    0    0 +0.0000000000e+00 +0.0000000000e+00 +3.1180830797e+02 3.3593067874e+02 1.2500000000e+02 0.0000e+00 0.0000e+00
<mgrwt>
<rscale>  0 0.12500000E+03</rscale>
<asrwt>0</asrwt>
<pdfrwt beam="1">  1       21 0.49826069E-01 0.12500000E+03</pdfrwt>
<pdfrwt beam="2">  1       21 0.18555672E-02 0.12500000E+03</pdfrwt>
<totfact> 0.52594582E+06</totfact>
</mgrwt>
</event>
<event>
 3      1 +1.7592000e+01 1.25000000e+02 7.54677100e-03 1.23506900e-01
       21 -1    0    0  502  501 +0.0000000000e+00 +0.0000000000e+00 +8.1788011359e+01 8.1788011359e+01 0.0000000000e+00 0.0000e+00 1.0000e+00
       21 -1    0    0  501  502 -0.0000000000e+00 -0.0000000000e+00 -4.7760667304e+01 4.7760667304e+01 0.0000000000e+00 0.0000e+00 1.0000e+00
       25  1    1    2    0    0 +0.0000000000e+00 +0.0000000000e+00 +3.4027344054e+01 1.2954867866e+02 1.2500000000e+02 0.0000e+00 0.0000e+00
<mgrwt>
<rscale>  0 0.12500000E+03</rscale>
<asrwt>0</asrwt>
<pdfrwt beam="1">  1       21 0.12582771E-01 0.12500000E+03</pdfrwt>
<pdfrwt beam="2">  1       21 0.73477950E-02 0.12500000E+03</pdfrwt>
<totfact> 0.73425296E+06</totfact>
</mgrwt>
</event>
<event>
 3      1 +1.7592000e+01 1.25000000e+02 7.54677100e-03 1.23506900e-01
       21 -1    0    0  502  501 +0.0000000000e+00 +0.0000000000e+00 +1.3083667281e+02 1.3083667281e+02 0.0000000000e+00 0.0000e+00 1.0000e+00
       21 -1    0    0  501  502 -0.0000000000e+00 -0.0000000000e+00 -2.9855925837e+01 2.9855925837e+01 0.0000000000e+00 0.0000e+00 1.0000e+00
       25  1    1    2    0    0 +0.0000000000e+00 +0.0000000000e+00 +1.0098074697e+02 1.6069259864e+02 1.2500000000e+02 0.0000e+00 0.0000e+00
<mgrwt>
<rscale>  0 0.12500000E+03</rscale>
<asrwt>0</asrwt>
<pdfrwt beam="1">  1       21 0.20128719E-01 0.12500000E+03</pdfrwt>
<pdfrwt beam="2">  1       21 0.45932194E-02 0.12500000E+03</pdfrwt>
<totfact> 0.69434967E+06</totfact>
</mgrwt>
</event>
<event>
 3      1 +1.7592000e+01 1.25000000e+02 7.54677100e-03 1.23506900e-01
       21 -1    0    0  502  501 +0.0000000000e+00 +0.0000000000e+00 +7.3146757767e+01 7.3146757767e+01 0.0000000000e+00 0.0000e+00 -1.0000e+00
       21 -1    0    0  501  502 -0.0000000000e+00 -0.0000000000e+00 -5.3402913803e+01 5.3402913803e+01 0.0000000000e+00 0.0000e+00 -1.0000e+00
       25  1    1    2    0    0 +0.0000000000e+00 +0.0000000000e+00 +1.9743843964e+01 1.2654967157e+02 1.2500000000e+02 0.0000e+00 0.0000e+00
<mgrwt>
<rscale>  0 0.12500000E+03</rscale>
<asrwt>0</asrwt>
<pdfrwt beam="1">  1       21 0.11253347E-01 0.12500000E+03</pdfrwt>
<pdfrwt beam="2">  1       21 0.82158329E-02 0.12500000E+03</pdfrwt>
<totfact> 0.73830577E+06</totfact>
</mgrwt>
</event>
<event>
 3      1 +1.7592000e+01 1.25000000e+02 7.54677100e-03 1.23506900e-01
       21 -1    0    0  502  501 +0.0000000000e+00 +0.0000000000e+00 +6.6460963769e+01 6.6460963769e+01 0.0000000000e+00 0.0000e+00 -1.0000e+00
       21 -1    0    0  501  502 -0.0000000000e+00 -0.0000000000e+00 -5.8775103136e+01 5.8775103136e+01 0.0000000000e+00 0.0000e+00 -1.0000e+00
       25  1    1    2    0    0 +0.0000000000e+00 +0.0000000000e+00 +7.6858606332e+00 1.2523606690e+02 1.2500000000e+02 0.0000e+00 0.0000e+00
<mgrwt>
<rscale>  0 0.12500000E+03</rscale>
<asrwt>0</asrwt>
<pdfrwt beam="1">  1       21 0.10224764E-01 0.12500000E+03</pdfrwt>
<pdfrwt beam="2">  1       21 0.90423236E-02 0.12500000E+03</pdfrwt>
<totfact> 0.74011702E+06</totfact>
</mgrwt>
</event>
<event>
 3      1 +1.7592000e+01 1.25000000e+02 7.54677100e-03 1.23506900e-01
       21 -1    0    0  502  501 +0.0000000000e+00 +0.0000000000e+00 +4.1089208679e+02 4.1089208679e+02 0.0000000000e+00 0.0000e+00 -1.0000e+00
       21 -1    0    0  501  502 -0.0000000000e+00 -0.0000000000e+00 -9.5067540252e+00 9.5067540252e+00 0.0000000000e+00 0.0000e+00 -1.0000e+00
       25  1    1    2    0    0 +0.0000000000e+00 +0.0000000000e+00 +4.0138533276e+02 4.2039884081e+02 1.2500000000e+02 0.0000e+00 0.0000e+00
<mgrwt>
<rscale>  0 0.12500000E+03</rscale>
<asrwt>0</asrwt>
<pdfrwt beam="1">  1       21 0.63214153E-01 0.12500000E+03</pdfrwt>
<pdfrwt beam="2">  1       21 0.14625779E-02 0.12500000E+03</pdfrwt>
<totfact> 0.46717115E+06</totfact>
</mgrwt>
</event>
<event>
 3      1 +1.7592000e+01 1.25000000e+02 7.54677100e-03 1.23506900e-01
       21 -1    0    0  502  501 +0.0000000000e+00 +0.0000000000e+00 +3.4521714658e+02 3.4521714658e+02 0.0000000000e+00 0.0000e+00 -1.0000e+00
       21 -1    0    0  501  502 -0.0000000000e+00 -0.0000000000e+00 -1.1315341775e+01 1.1315341775e+01 0.0000000000e+00 0.0000e+00 -1.0000e+00
       25  1    1    2    0    0 +0.0000000000e+00 +0.0000000000e+00 +3.3390180481e+02 3.5653248836e+02 1.2500000000e+02 0.0000e+00 0.0000e+00
<mgrwt>
<rscale>  0 0.12500000E+03</rscale>
<asrwt>0</asrwt>
<pdfrwt beam="1">  1       21 0.53110322E-01 0.12500000E+03</pdfrwt>
<pdfrwt beam="2">  1       21 0.17408221E-02 0.12500000E+03</pdfrwt>
<totfact> 0.51059582E+06</totfact>
</mgrwt>
</event>
<event>
 3      1 +1.7592000e+01 1.25000000e+02 7.54677100e-03 1.23506900e-01
       21 -1    0    0  502  501 +0.0000000000e+00 +0.0000000000e+00 +9.5857253460e+00 9.5857253460e+00 0.0000000000e+00 0.0000e+00 -1.0000e+00
       21 -1    0    0  501  502 -0.0000000000e+00 -0.0000000000e+00 -4.0750698137e+02 4.0750698137e+02 0.0000000000e+00 0.0000e+00 -1.0000e+00
       25  1    1    2    0    0 +0.0000000000e+00 +0.0000000000e+00 -3.9792125603e+02 4.1709270672e+02 1.2500000000e+02 0.0000e+00 0.0000e+00
<mgrwt>
<rscale>  0 0.12500000E+03</rscale>
<asrwt>0</asrwt>
<pdfrwt beam="1">  1       21 0.14747266E-02 0.12500000E+03</pdfrwt>
<pdfrwt beam="2">  1       21 0.62693400E-01 0.12500000E+03</pdfrwt>
<totfact> 0.46927890E+06</totfact>
</mgrwt>
</event>
<event>
 3      1 +1.7592000e+01 1.25000000e+02 7.54677100e-03 1.23506900e-01
       21 -1    0    0  502  501 +0.0000000000e+00 +0.0000000000e+00 +3.6444946645e+01 3.6444946645e+01 0.0000000000e+00 0.0000e+00 1.0000e+00
       21 -1    0    0  501  502 -0.0000000000e+00 -0.0000000000e+00 -1.0718221207e+02 1.0718221207e+02 0.0000000000e+00 0.0000e+00 1.0000e+00
       25  1    1    2    0    0 +0.0000000000e+00 +0.0000000000e+00 -7.0737265421e+01 1.4362715871e+02 1.2500000000e+02 0.0000e+00 0.0000e+00
<mgrwt>
<rscale>  0 0.12500000E+03</rscale>
<asrwt>0</asrwt>
<pdfrwt beam="1">  1       21 0.56069150E-02 0.12500000E+03</pdfrwt>
<pdfrwt beam="2">  1       21 0.16489571E-01 0.12500000E+03</pdfrwt>
<totfact> 0.71569255E+06</totfact>
</mgrwt>
</event>
<event>
 3      1 +1.7592000e+01 1.25000000e+02 7.54677100e-03 1.23506900e-01
       21 -1    0    0  502  501 +0.0000000000e+00 +0.0000000000e+00 +5.0694659191e+02 5.0694659191e+02 0.0000000000e+00 0.0000e+00 -1.0000e+00
       21 -1    0    0  501  502 -0.0000000000e+00 -0.0000000000e+00 -7.7054468110e+00 7.7054468110e+00 0.0000000000e+00 0.0000e+00 -1.0000e+00
       25  1    1    2    0    0 +0.0000000000e+00 +0.0000000000e+00 +4.9924114510e+02 5.1465203872e+02 1.2500000000e+02 0.0000e+00 0.0000e+00
<mgrwt>
<rscale>  0 0.12500000E+03</rscale>
<asrwt>0</asrwt>
<pdfrwt beam="1">  1       21 0.77991757E-01 0.12500000E+03</pdfrwt>
<pdfrwt beam="2">  1       21 0.11854538E-02 0.12500000E+03</pdfrwt>
<totfact> 0.41260453E+06</totfact>
</mgrwt>
</event>
<event>
 3      1 +1.7592000e+01 1.25000000e+02 7.54677100e-03 1.23506900e-01
       21 -1    0    0  502  501 +0.0000000000e+00 +0.0000000000e+00 +2.2464664529e+01 2.2464664529e+01 0.0000000000e+00 0.0000e+00 -1.0000e+00
       21 -1    0    0  501  502 -0.0000000000e+00 -0.0000000000e+00 -1.7388419021e+02 1.7388419021e+02 0.0000000000e+00 0.0000e+00 -1.0000e+00
       25  1    1    2    0    0 +0.0000000000e+00 +0.0000000000e+00 -1.5141952569e+02 1.9634885474e+02 1.2500000000e+02 0.0000e+00 0.0000e+00
<mgrwt>
<rscale>  0 0.12500000E+03</rscale>
<asrwt>0</asrwt>
<pdfrwt beam="1">  1       21 0.34561021E-02 0.12500000E+03</pdfrwt>
<pdfrwt beam="2">  1       21 0.26751415E-01 0.12500000E+03</pdfrwt>
<totfact> 0.65323696E+06</totfact>
</mgrwt>
</event>
<event>
 3      1 +1.7592000e+01 1.25000000e+02 7.54677100e-03 1.23506900e-01
       21 -1    0    0  502  501 +0.0000000000e+00 +0.0000000000e+00 +2.3503497518e+01 2.3503497518e+01 0.0000000000e+00 0.0000e+00 -1.0000e+00
       21 -1    0    0  501  502 -0.0000000000e+00 -0.0000000000e+00 -1.6619866882e+02 1.6619866882e+02 0.0000000000e+00 0.0000e+00 -1.0000e+00
       25  1    1    2    0    0 +0.0000000000e+00 +0.0000000000e+00 -1.4269517130e+02 1.8970216633e+02 1.2500000000e+02 0.0000e+00 0.0000e+00
<mgrwt>
<rscale>  0 0.12500000E+03</rscale>
<asrwt>0</asrwt>
<pdfrwt beam="1">  1       21 0.36159229E-02 0.12500000E+03</pdfrwt>
<pdfrwt beam="2">  1       21 0.25569025E-01 0.12500000E+03</pdfrwt>
<totfact> 0.66055581E+06</totfact>
</mgrwt>
</event>
<event>
 3      1 +1.7592000e+01 1.25000000e+02 7.54677100e-03 1.23506900e-01
       21 -1    0    0  502  501 +0.0000000000e+00 +0.0000000000e+00 +7.9670301615e+01 7.9670301615e+01 0.0000000000e+00 0.0000e+00 -1.0000e+00
       21 -1    0    0  501  502 -0.0000000000e+00 -0.0000000000e+00 -4.9030189680e+01 4.9030189680e+01 0.0000000000e+00 0.0000e+00 -1.0000e+00
       25  1    1    2    0    0 +0.0000000000e+00 +0.0000000000e+00 +3.0640111935e+01 1.2870049129e+02 1.2500000000e+02 0.0000e+00 0.0000e+00
<mgrwt>
<rscale>  0 0.12500000E+03</rscale>
<asrwt>0</asrwt>
<pdfrwt beam="1">  1       21 0.12256969E-01 0.12500000E+03</pdfrwt>
<pdfrwt beam="2">  1       21 0.75431061E-02 0.12500000E+03</pdfrwt>
<totfact> 0.73539137E+06</totfact>
</mgrwt>
</event>
<event>
 3      1 +1.7592000e+01 1.25000000e+02 7.54677100e-03 1.23506900e-01
       21 -1    0    0  502  501 +0.0000000000e+00 +0.0000000000e+00 +1.3240588972e+01 1.3240588972e+01 0.0000000000e+00 0.0000e+00 1.0000e+00
       21 -1    0    0  501  502 -0.0000000000e+00 -0.0000000000e+00 -2.9502086413e+02 2.9502086413e+02 0.0000000000e+00 0.0000e+00 1.0000e+00
       25  1    1    2    0    0 +0.0000000000e+00 +0.0000000000e+00 -2.8178027516e+02 3.0826145310e+02 1.2500000000e+02 0.0000e+00 0.0000e+00
<mgrwt>
<rscale>  0 0.12500000E+03</rscale>
<asrwt>0</asrwt>
<pdfrwt beam="1">  1       21 0.20370136E-02 0.12500000E+03</pdfrwt>
<pdfrwt beam="2">  1       21 0.45387827E-01 0.12500000E+03</pdfrwt>
<totfact> 0.54776526E+06</totfact>
</mgrwt>
</event>
<event>
 3      1 +1.7592000e+01 1.25000000e+02 7.54677100e-03 1.23506900e-01
       21 -1    0    0  502  501 +0.0000000000e+00 +0.0000000000e+00 +9.4954033823e+02 9.4954033823e+02 0.0000000000e+00 0.0000e+00 -1.0000e+00
       21 -1    0    0  501  502 -0.0000000000e+00 -0.0000000000e+00 -4.1138326016e+00 4.1138326016e+00 0.0000000000e+00 0.0000e+00 -1.0000e+00
       25  1    1    2    0    0 +0.0000000000e+00 +0.0000000000e+00 +9.4542650563e+02 9.5365417084e+02 1.2500000000e+02 0.0000e+00 0.0000e+00
<mgrwt>
<rscale>  0 0.12500000E+03</rscale>
<asrwt>0</asrwt>
<pdfrwt beam="1">  1       21 0.14608295E+00 0.12500000E+03</pdfrwt>
<pdfrwt beam="2">  1       21 0.63289808E-03 0.12500000E+03</pdfrwt>
<totfact> 0.24813852E+06</totfact>
</mgrwt>
</event>
<event>
 3      1 +1.7592000e+01 1.25000000e+02 7.54677100e-03 1.23506900e-01
       21 -1    0    0  502  501 +0.0000000000e+00 +0.0000000000e+00 +3.4071662360e+02 3.4071662360e+02 0.0000000000e+00 0.0000e+00 -1.0000e+00
       21 -1    0    0  501  502 -0.0000000000e+00 -0.0000000000e+00 -1.1464806028e+01 1.1464806028e+01 0.0000000000e+00 0.0000e+00 -1.0000e+00
       25  1    1    2    0    0 +0.0000000000e+00 +0.0000000000e+00 +3.2925181757e+02 3.5218142962e+02 1.2500000000e+02 0.0000e+00 0.0000e+00
<mgrwt>
<rscale>  0 0.12500000E+03</rscale>
<asrwt>0</asrwt>
<pdfrwt beam="1">  1       21 0.52417934E-01 0.12500000E+03</pdfrwt>
<pdfrwt beam="2">  1       21 0.17638166E-02 0.12500000E+03</pdfrwt>
<totfact> 0.51377733E+06</totfact>
</mgrwt>
</event>
<event>
 3      1 +1.7592000e+01 1.25000000e+02 7.54677100e-03 1.23506900e-01
       21 -1    0    0  502  501 +0.0000000000e+00 +0.0000000000e+00 +6.8248947614e+00 6.8248947614e+00 0.0000000000e+00 0.0000e+00 -1.0000e+00
       21 -1    0    0  501  502 -0.0000000000e+00 -0.0000000000e+00 -5.7235314779e+02 5.7235314779e+02 0.0000000000e+00 0.0000e+00 -1.0000e+00
       25  1    1    2    0    0 +0.0000000000e+00 +0.0000000000e+00 -5.6552825303e+02 5.7917804255e+02 1.2500000000e+02 0.0000e+00 0.0000e+00
<mgrwt>
<rscale>  0 0.12500000E+03</rscale>
<asrwt>0</asrwt>
<pdfrwt beam="1">  1       21 0.10499836E-02 0.12500000E+03</pdfrwt>
<pdfrwt beam="2">  1       21 0.88054347E-01 0.12500000E+03</pdfrwt>
<totfact> 0.38051526E+06</totfact>
</mgrwt>
</event>
<event>
 3      1 +1.7592000e+01 1.25000000e+02 7.54677100e-03 1.23506900e-01
       21 -1    0    0  502  501 +0.0000000000e+00 +0.0000000000e+00 +1.8642688683e+01 1.8642688683e+01 0.0000000000e+00 0.0000e+00 -1.0000e+00
       21 -1    0    0  501  502 -0.0000000000e+00 -0.0000000000e+00 -2.0953254471e+02 2.0953254471e+02 0.0000000000e+00 0.0000e+00 -1.0000e+00
       25  1    1    2    0    0 +0.0000000000e+00 +0.0000000000e+00 -1.9088985603e+02 2.2817523340e+02 1.2500000000e+02 0.0000e+00 0.0000e+00
<mgrwt>
<rscale>  0 0.12500000E+03</rscale>
<asrwt>0</asrwt>
<pdfrwt beam="1">  1       21 0.28681060E-02 0.12500000E+03</pdfrwt>
<pdfrwt beam="2">  1       21 0.32235776E-01 0.12500000E+03</pdfrwt>
<totfact> 0.61996045E+06</totfact>
</mgrwt>
</event>
<event>
 3      1 +1.7592000e+01 1.25000000e+02 7.54677100e-03 1.23506900e-01
       21 -1    0    0  502  501 +0.0000000000e+00 +0.0000000000e+00 +2.9175058362e+01 2.9175058362e+01 0.0000000000e+00 0.0000e+00 -1.0000e+00
       21 -1    0    0  501  502 -0.0000000000e+00 -0.0000000000e+00 -1.3389004922e+02 1.3389004922e+02 0.0000000000e+00 0.0000e+00 -1.0000e+00
       25  1    1    2    0    0 +0.0000000000e+00 +0.0000000000e+00 -1.0471499086e+02 1.6306510758e+02 1.2500000000e+02 0.0000e+00 0.0000e+00
<mgrwt>
<rscale>  0 0.12500000E+03</rscale>
<asrwt>0</asrwt>
<pdfrwt beam="1">  1       21 0.44884705E-02 0.12500000E+03</pdfrwt>
<pdfrwt beam="2">  1       21 0.20598469E-01 0.12500000E+03</pdfrwt>
<totfact> 0.69146899E+06</totfact>
</mgrwt>
</event>
<event>
 3      1 +1.7592000e+01 1.25000000e+02 7.54677100e-03 1.23506900e-01
       21 -1    0    0  502  501 +0.0000000000e+00 +0.0000000000e+00 +1.1928021178e+03 1.1928021178e+03 0.0000000000e+00 0.0000e+00 -1.0000e+00
       21 -1    0    0  501  502 -0.0000000000e+00 -0.0000000000e+00 -3.2748516638e+00 3.2748516638e+00 0.0000000000e+00 0.0000e+00 -1.0000e+00
       25  1    1    2    0    0 +0.0000000000e+00 +0.0000000000e+00 +1.1895272661e+03 1.1960769694e+03 1.2500000000e+02 0.0000e+00 0.0000e+00
<mgrwt>
<rscale>  0 0.12500000E+03</rscale>
<asrwt>0</asrwt>
<pdfrwt beam="1">  1       21 0.18350767E+00 0.12500000E+03</pdfrwt>
<pdfrwt beam="2">  1       21 0.50382429E-03 0.12500000E+03</pdfrwt>
<totfact> 0.19221764E+06</totfact>
</mgrwt>
</event>
<event>
 3      1 +1.7592000e+01 1.25000000e+02 7.54677100e-03 1.23506900e-01
       21 -1    0    0  502  501 +0.0000000000e+00 +0.0000000000e+00 +1.6563581117e+03 1.6563581117e+03 0.0000000000e+00 0.0000e+00 1.0000e+00
       21 -1    0    0  501  502 -0.0000000000e+00 -0.0000000000e+00 -2.3583366256e+00 2.3583366256e+00 0.0000000000e+00 0.0000e+00 1.0000e+00
       25  1    1    2    0    0 +0.0000000000e+00 +0.0000000000e+00 +1.6539997751e+03 1.6587164483e+03 1.2500000000e+02 0.0000e+00 0.0000e+00
<mgrwt>
<rscale>  0 0.12500000E+03</rscale>
<asrwt>0</asrwt>
<pdfrwt beam="1">  1       21 0.25482339E+00 0.12500000E+03</pdfrwt>
<pdfrwt beam="2">  1       21 0.36282234E-03 0.12500000E+03</pdfrwt>
<totfact> 0.11794734E+06</totfact>
</mgrwt>
</event>
<event>
 3      1 +1.7592000e+01 1.25000000e+02 7.54677100e-03 1.23506900e-01
       21 -1    0    0  502  501 +0.0000000000e+00 +0.0000000000e+00 +2.6764328982e+02 2.6764328982e+02 0.0000000000e+00 0.0000e+00 1.0000e+00
       21 -1    0    0  501  502 -0.0000000000e+00 -0.0000000000e+00 -1.4594985746e+01 1.4594985746e+01 0.0000000000e+00 0.0000e+00 1.0000e+00
       25  1    1    2    0    0 +0.0000000000e+00 +0.0000000000e+00 +2.5304830408e+02 2.8223827557e+02 1.2500000000e+02 0.0000e+00 0.0000e+00
<mgrwt>
<rscale>  0 0.12500000E+03</rscale>
<asrwt>0</asrwt>
<pdfrwt beam="1">  1       21 0.41175887E-01 0.12500000E+03</pdfrwt>
<pdfrwt beam="2">  1       21 0.22453826E-02 0.12500000E+03</pdfrwt>
<totfact> 0.56965320E+06</totfact>
</mgrwt>
</event>
<event>
 3      1 +1.7592000e+01 1.25000000e+02 7.54677100e-03 1.23506900e-01
       21 -1    0    0  502  501 +0.0000000000e+00 +0.0000000000e+00 +1.3885608148e+01 1.3885608148e+01 0.0000000000e+00 0.0000e+00 -1.0000e+00
       21 -1    0    0  501  502 -0.0000000000e+00 -0.0000000000e+00 -2.8131645070e+02 2.8131645070e+02 0.0000000000e+00 0.0000e+00 -1.0000e+00
       25  1    1    2    0    0 +0.0000000000e+00 +0.0000000000e+00 -2.6743084256e+02 2.9520205885e+02 1.2500000000e+02 0.0000e+00 0.0000e+00
<mgrwt>
<rscale>  0 0.12500000E+03</rscale>
<asrwt>0</asrwt>
<pdfrwt beam="1">  1       21 0.21362473E-02 0.12500000E+03</pdfrwt>
<pdfrwt beam="2">  1       21 0.43279456E-01 0.12500000E+03</pdfrwt>
<totfact> 0.55857272E+06</totfact>
</mgrwt>
</event>
<event>
 3      1 +1.7592000e+01 1.25000000e+02 7.54677100e-03 1.23506900e-01
       21 -1    0    0  502  501 +0.0000000000e+00 +0.0000000000e+00 +5.8705773674e+01 5.8705773674e+01 0.0000000000e+00 0.0000e+00 -1.0000e+00
       21 -1    0    0  501  502 -0.0000000000e+00 -0.0000000000e+00 -6.6539451838e+01 6.6539451838e+01 0.0000000000e+00 0.0000e+00 -1.0000e+00
       25  1    1    2    0    0 +0.0000000000e+00 +0.0000000000e+00 -7.8336781632e+00 1.2524522551e+02 1.2500000000e+02 0.0000e+00 0.0000e+00
<mgrwt>
<rscale>  0 0.12500000E+03</rscale>
<asrwt>0</asrwt>
<pdfrwt beam="1">  1       21 0.90316575E-02 0.12500000E+03</pdfrwt>
<pdfrwt beam="2">  1       21 0.10236839E-01 0.12500000E+03</pdfrwt>
<totfact> 0.74010466E+06</totfact>
</mgrwt>
</event>
<event>
 3      1 +1.7592000e+01 1.25000000e+02 7.54677100e-03 1.23506900e-01
       21 -1    0    0  502  501 +0.0000000000e+00 +0.0000000000e+00 +4.1257352249e+01 4.1257352249e+01 0.0000000000e+00 0.0000e+00 -1.0000e+00
       21 -1    0    0  501  502 -0.0000000000e+00 -0.0000000000e+00 -9.4680094263e+01 9.4680094263e+01 0.0000000000e+00 0.0000e+00 -1.0000e+00
       25  1    1    2    0    0 +0.0000000000e+00 +0.0000000000e+00 -5.3422742013e+01 1.3593744651e+02 1.2500000000e+02 0.0000e+00 0.0000e+00
<mgrwt>
<rscale>  0 0.12500000E+03</rscale>
<asrwt>0</asrwt>
<pdfrwt beam="1">  1       21 0.63472850E-02 0.12500000E+03</pdfrwt>
<pdfrwt beam="2">  1       21 0.14566168E-01 0.12500000E+03</pdfrwt>
<totfact> 0.72572585E+06</totfact>
</mgrwt>
</event>
<event>
 3      1 +1.7592000e+01 1.25000000e+02 7.54677100e-03 1.23506900e-01
       21 -1    0    0  502  501 +0.0000000000e+00 +0.0000000000e+00 +4.9640876634e+02 4.9640876634e+02 0.0000000000e+00 0.0000e+00 1.0000e+00
       21 -1    0    0  501  502 -0.0000000000e+00 -0.0000000000e+00 -7.8690189717e+00 7.8690189717e+00 0.0000000000e+00 0.0000e+00 1.0000e+00
       25  1    1    2    0    0 +0.0000000000e+00 +0.0000000000e+00 +4.8853974736e+02 5.0427778531e+02 1.2500000000e+02 0.0000e+00 0.0000e+00
<mgrwt>
<rscale>  0 0.12500000E+03</rscale>
<asrwt>0</asrwt>
<pdfrwt beam="1">  1       21 0.76370555E-01 0.12500000E+03</pdfrwt>
<pdfrwt beam="2">  1       21 0.12106187E-02 0.12500000E+03</pdfrwt>
<totfact> 0.41813031E+06</totfact>
</mgrwt>
</event>
<event>
 3      1 +1.7592000e+01 1.25000000e+02 7.54677100e-03 1.23506900e-01
       21 -1    0    0  502  501 +0.0000000000e+00 +0.0000000000e+00 +6.1984734101e+01 6.1984734101e+01 0.0000000000e+00 0.0000e+00 1.0000e+00
       21 -1    0    0  501  502 -0.0000000000e+00 -0.0000000000e+00 -6.3019549195e+01 6.3019549195e+01 0.0000000000e+00 0.0000e+00 1.0000e+00
       25  1    1    2    0    0 +0.0000000000e+00 +0.0000000000e+00 -1.0348150942e+00 1.2500428330e+02 1.2500000000e+02 0.0000e+00 0.0000e+00
<mgrwt>
<rscale>  0 0.12500000E+03</rscale>
<asrwt>0</asrwt>
<pdfrwt beam="1">  1       21 0.95361130E-02 0.12500000E+03</pdfrwt>
<pdfrwt beam="2">  1       21 0.96953152E-02 0.12500000E+03</pdfrwt>
<totfact> 0.74043003E+06</totfact>
</mgrwt>
</event>
<event>
 3      1 +1.7592000e+01 1.25000000e+02 7.54677100e-03 1.23506900e-01
       21 -1    0    0  502  501 +0.0000000000e+00 +0.0000000000e+00 +5.0352038458e+00 5.0352038458e+00 0.0000000000e+00 0.0000e+00 -1.0000e+00
       21 -1    0    0  501  502 -0.0000000000e+00 -0.0000000000e+00 -7.7578785679e+02 7.7578785679e+02 0.0000000000e+00 0.0000e+00 -1.0000e+00
       25  1    1    2    0    0 +0.0000000000e+00 +0.0000000000e+00 -7.7075265294e+02 7.8082306064e+02 1.2500000000e+02 0.0000e+00 0.0000e+00
<mgrwt>
<rscale>  0 0.12500000E+03</rscale>
<asrwt>0</asrwt>
<pdfrwt beam="1">  1       21 0.77464748E-03 0.12500000E+03</pdfrwt>
<pdfrwt beam="2">  1       21 0.11935186E+00 0.12500000E+03</pdfrwt>
<totfact> 0.30008132E+06</totfact>
</mgrwt>
</event>
<event>
 3      1 +1.7592000e+01 1.25000000e+02 7.54677100e-03 1.23506900e-01
       21 -1    0    0  502  501 +0.0000000000e+00 +0.0000000000e+00 +1.7361244185e+02 1.7361244185e+02 0.0000000000e+00 0.0000e+00 -1.0000e+00
       21 -1    0    0  501  502 -0.0000000000e+00 -0.0000000000e+00 -2.2499827538e+01 2.2499827538e+01 0.0000000000e+00 0.0000e+00 -1.0000e+00
       25  1    1    2    0    0 +0.0000000000e+00 +0.0000000000e+00 +1.5111261431e+02 1.9611226938e+02 1.2500000000e+02 0.0000e+00 0.0000e+00
<mgrwt>
<rscale>  0 0.12500000E+03</rscale>
<asrwt>0</asrwt>
<pdfrwt beam="1">  1       21 0.26709606E-01 0.12500000E+03</pdfrwt>
<pdfrwt beam="2">  1       21 0.34615120E-02 0.12500000E+03</pdfrwt>
<totfact> 0.65349494E+06</totfact>
</mgrwt>
</event>
<event>
 3      1 +1.7592000e+01 1.25000000e+02 7.54677100e-03 1.23506900e-01
       21 -1    0    0  502  501 +0.0000000000e+00 +0.0000000000e+00 +1.8586517185e+01 1.8586517185e+01 0.0000000000e+00 0.0000e+00 1.0000e+00
       21 -1    0    0  501  502 -0.0000000000e+00 -0.0000000000e+00 -2.1016578637e+02 2.1016578637e+02 0.0000000000e+00 0.0000e+00 1.0000e+00
       25  1    1    2    0    0 +0.0000000000e+00 +0.0000000000e+00 -1.9157926918e+02 2.2875230355e+02 1.2500000000e+02 0.0000e+00 0.0000e+00
<mgrwt>
<rscale>  0 0.12500000E+03</rscale>
<asrwt>0</asrwt>
<pdfrwt beam="1">  1       21 0.28594644E-02 0.12500000E+03</pdfrwt>
<pdfrwt beam="2">  1       21 0.32333195E-01 0.12500000E+03</pdfrwt>
<totfact> 0.61938368E+06</totfact>
</mgrwt>
</event>
<event>
 3      1 +1.7592000e+01 1.25000000e+02 7.54677100e-03 1.23506900e-01
       21 -1    0    0  502  501 +0.0000000000e+00 +0.0000000000e+00 +3.8010870012e+01 3.8010870012e+01 0.0000000000e+00 0.0000e+00 1.0000e+00
       21 -1    0    0  501  502 -0.0000000000e+00 -0.0000000000e+00 -1.0276665593e+02 1.0276665593e+02 0.0000000000e+00 0.0000e+00 1.0000e+00
       25  1    1    2    0    0 +0.0000000000e+00 +0.0000000000e+00 -6.4755785916e+01 1.4077752594e+02 1.2500000000e+02 0.0000e+00 0.0000e+00
<mgrwt>
<rscale>  0 0.12500000E+03</rscale>
<asrwt>0</asrwt>
<pdfrwt beam="1">  1       21 0.58478261E-02 0.12500000E+03</pdfrwt>
<pdfrwt beam="2">  1       21 0.15810255E-01 0.12500000E+03</pdfrwt>
<totfact> 0.71937966E+06</totfact>
</mgrwt>
</event>
<event>
 3      1 +1.7592000e+01 1.25000000e+02 7.54677100e-03 1.23506900e-01
       21 -1    0    0  502  501 +0.0000000000e+00 +0.0000000000e+00 +9.9208741778e+01 9.9208741778e+01 0.0000000000e+00 0.0000e+00 1.0000e+00
       21 -1    0    0  501  502 -0.0000000000e+00 -0.0000000000e+00 -3.9374050411e+01 3.9374050411e+01 0.0000000000e+00 0.0000e+00 1.0000e+00
       25  1    1    2    0    0 +0.0000000000e+00 +0.0000000000e+00 +5.9834691367e+01 1.3858279219e+02 1.2500000000e+02 0.0000e+00 0.0000e+00
<mgrwt>
<rscale>  0 0.12500000E+03</rscale>
<asrwt>0</asrwt>
<pdfrwt beam="1">  1       21 0.15262883E-01 0.12500000E+03</pdfrwt>
<pdfrwt beam="2">  1       21 0.60575463E-02 0.12500000E+03</pdfrwt>
<totfact> 0.72224866E+06</totfact>
</mgrwt>
</event>
<event>
 3      1 +1.7592000e+01 1.25000000e+02 7.54677100e-03 1.23506900e-01
       21 -1    0    0  502  501 +0.0000000000e+00 +0.0000000000e+00 +1.0628750403e+01 1.0628750403e+01 0.0000000000e+00 0.0000e+00 1.0000e+00
       21 -1    0    0  501  502 -0.0000000000e+00 -0.0000000000e+00 -3.6751733288e+02 3.6751733288e+02 0.0000000000e+00 0.0000e+00 1.0000e+00
       25  1    1    2    0    0 +0.0000000000e+00 +0.0000000000e+00 -3.5688858247e+02 3.7814608328e+02 1.2500000000e+02 0.0000e+00 0.0000e+00
<mgrwt>
<rscale>  0 0.12500000E+03</rscale>
<asrwt>0</asrwt>
<pdfrwt beam="1">  1       21 0.16351920E-02 0.12500000E+03</pdfrwt>
<pdfrwt beam="2">  1       21 0.56541142E-01 0.12500000E+03</pdfrwt>
<totfact> 0.49524595E+06</totfact>
</mgrwt>
</event>
<event>
 3      1 +1.7592000e+01 1.25000000e+02 7.54677100e-03 1.23506900e-01
       21 -1    0    0  502  501 +0.0000000000e+00 +0.0000000000e+00 +9.6106373676e+00 9.6106373676e+00 0.0000000000e+00 0.0000e+00 1.0000e+00
       21 -1    0    0  501  502 -0.0000000000e+00 -0.0000000000e+00 -4.0645067029e+02 4.0645067029e+02 0.0000000000e+00 0.0000e+00 1.0000e+00
       25  1    1    2    0    0 +0.0000000000e+00 +0.0000000000e+00 -3.9684003293e+02 4.1606130766e+02 1.2500000000e+02 0.0000e+00 0.0000e+00
<mgrwt>
<rscale>  0 0.12500000E+03</rscale>
<asrwt>0</asrwt>
<pdfrwt beam="1">  1       21 0.14785597E-02 0.12500000E+03</pdfrwt>
<pdfrwt beam="2">  1       21 0.62530870E-01 0.12500000E+03</pdfrwt>
<totfact> 0.46993955E+06</totfact>
</mgrwt>
</event>
<event>
 3      1 +1.7592000e+01 1.25000000e+02 7.54677100e-03 1.23506900e-01
       21 -1    0    0  502  501 +0.0000000000e+00 +0.0000000000e+00 +1.0789276826e+02 1.0789276826e+02 0.0000000000e+00 0.0000e+00 -1.0000e+00
       21 -1    0    0  501  502 -0.0000000000e+00 -0.0000000000e+00 -3.6204928867e+01 3.6204928867e+01 0.0000000000e+00 0.0000e+00 -1.0000e+00
       25  1    1    2    0    0 +0.0000000000e+00 +0.0000000000e+00 +7.1687839391e+01 1.4409769712e+02 1.2500000000e+02 0.0000e+00 0.0000e+00
<mgrwt>
<rscale>  0 0.12500000E+03</rscale>
<asrwt>0</asrwt>
<pdfrwt beam="1">  1       21 0.16598887E-01 0.12500000E+03</pdfrwt>
<pdfrwt beam="2">  1       21 0.55699891E-02 0.12500000E+03</pdfrwt>
<totfact> 0.71508772E+06</totfact>
</mgrwt>
</event>
<event>
 3      1 +1.7592000e+01 1.25000000e+02 7.54677100e-03 1.23506900e-01
       21 -1    0    0  502  501 +0.0000000000e+00 +0.0000000000e+00 +3.1794681225e+01 3.1794681225e+01 0.0000000000e+00 0.0000e+00 -1.0000e+00
       21 -1    0    0  501  502 -0.0000000000e+00 -0.0000000000e+00 -1.2285859928e+02 1.2285859928e+02 0.0000000000e+00 0.0000e+00 -1.0000e+00
       25  1    1    2    0    0 +0.0000000000e+00 +0.0000000000e+00 -9.1063918060e+01 1.5465328051e+02 1.2500000000e+02 0.0000e+00 0.0000e+00
<mgrwt>
<rscale>  0 0.12500000E+03</rscale>
<asrwt>0</asrwt>
<pdfrwt beam="1">  1       21 0.48914894E-02 0.12500000E+03</pdfrwt>
<pdfrwt beam="2">  1       21 0.18901323E-01 0.12500000E+03</pdfrwt>
<totfact> 0.70178777E+06</totfact>
</mgrwt>
</event>
<event>
 3      1 +1.7592000e+01 1.25000000e+02 7.54677100e-03 1.23506900e-01
       21 -1    0    0  502  501 +0.0000000000e+00 +0.0000000000e+00 +6.6091934333e+01 6.6091934333e+01 0.0000000000e+00 0.0000e+00 1.0000e+00
       21 -1    0    0  501  502 -0.0000000000e+00 -0.0000000000e+00 -5.9103278478e+01 5.9103278478e+01 0.0000000000e+00 0.0000e+00 1.0000e+00
       25  1    1    2    0    0 +0.0000000000e+00 +0.0000000000e+00 +6.9886558547e+00 1.2519521281e+02 1.2500000000e+02 0.0000e+00 0.0000e+00
<mgrwt>
<rscale>  0 0.12500000E+03</rscale>
<asrwt>0</asrwt>
<pdfrwt beam="1">  1       21 0.10167990E-01 0.12500000E+03</pdfrwt>
<pdfrwt beam="2">  1       21 0.90928120E-02 0.12500000E+03</pdfrwt>
<totfact> 0.74017218E+06</totfact>
</mgrwt>
</event>
<event>
 3      1 +1.7592000e+01 1.25000000e+02 7.54677100e-03 1.23506900e-01
       21 -1    0    0  502  501 +0.0000000000e+00 +0.0000000000e+00 +8.2625244547e+01 8.2625244547e+01 0.0000000000e+00 0.0000e+00 1.0000e+00
       21 -1    0    0  501  502 -0.0000000000e+00 -0.0000000000e+00 -4.7276713327e+01 4.7276713327e+01 0.0000000000e+00 0.0000e+00 1.0000e+00
       25  1    1    2    0    0 +0.0000000000e+00 +0.0000000000e+00 +3.5348531220e+01 1.2990195787e+02 1.2500000000e+02 0.0000e+00 0.0000e+00
<mgrwt>
<rscale>  0 0.12500000E+03</rscale>
<asrwt>0</asrwt>
<pdfrwt beam="1">  1       21 0.12711576E-01 0.12500000E+03</pdfrwt>
<pdfrwt beam="2">  1       21 0.72733406E-02 0.12500000E+03</pdfrwt>
<totfact> 0.73378021E+06</totfact>
</mgrwt>
</event>
<event>
 3      1 +1.7592000e+01 1.25000000e+02 7.54677100e-03 1.23506900e-01
       21 -1    0    0  502  501 +0.0000000000e+00 +0.0000000000e+00 +2.0033094712e+01 2.0033094712e+01 0.0000000000e+00 0.0000e+00 1.0000e+00
       21 -1    0    0  501  502 -0.0000000000e+00 -0.0000000000e+00 -1.9498984337e+02 1.9498984337e+02 0.0000000000e+00 0.0000e+00 1.0000e+00
       25  1    1    2    0    0 +0.0000000000e+00 +0.0000000000e+00 -1.7495674866e+02 2.1502293808e+02 1.2500000000e+02 0.0000e+00 0.0000e+00
<mgrwt>
<rscale>  0 0.12500000E+03</rscale>
<asrwt>0</asrwt>
<pdfrwt beam="1">  1       21 0.30820145E-02 0.12500000E+03</pdfrwt>
<pdfrwt beam="2">  1       21 0.29998438E-01 0.12500000E+03</pdfrwt>
<totfact> 0.63334909E+06</totfact>
</mgrwt>
</event>
<event>
 3      1 +1.7592000e+01 1.25000000e+02 7.54677100e-03 1.23506900e-01
       21 -1    0    0  502  501 +0.0000000000e+00 +0.0000000000e+00 +1.4184028911e+02 1.4184028911e+02 0.0000000000e+00 0.0000e+00 -1.0000e+00
       21 -1    0    0  501  502 -0.0000000000e+00 -0.0000000000e+00 -2.7539777481e+01 2.7539777481e+01 0.0000000000e+00 0.0000e+00 -1.0000e+00
       25  1    1    2    0    0 +0.0000000000e+00 +0.0000000000e+00 +1.1430051163e+02 1.6938006659e+02 1.2500000000e+02 0.0000e+00 0.0000e+00
<mgrwt>
<rscale>  0 0.12500000E+03</rscale>
<asrwt>0</asrwt>
<pdfrwt beam="1">  1       21 0.21821583E-01 0.12500000E+03</pdfrwt>
<pdfrwt beam="2">  1       21 0.42368889E-02 0.12500000E+03</pdfrwt>
<totfact> 0.68391129E+06</totfact>
</mgrwt>
</event>
<event>
 3      1 +1.7592000e+01 1.25000000e+02 7.54677100e-03 1.23506900e-01
       21 -1    0    0  502  501 +0.0000000000e+00 +0.0000000000e+00 +1.2095872688e+01 1.2095872688e+01 0.0000000000e+00 0.0000e+00 -1.0000e+00
       21 -1    0    0  501  502 -0.0000000000e+00 -0.0000000000e+00 -3.2294073364e+02 3.2294073364e+02 0.0000000000e+00 0.0000e+00 -1.0000e+00
       25  1    1    2    0    0 +0.0000000000e+00 +0.0000000000e+00 -3.1084486096e+02 3.3503660633e+02 1.2500000000e+02 0.0000e+00 0.0000e+00
<mgrwt>
<rscale>  0 0.12500000E+03</rscale>
<asrwt>0</asrwt>
<pdfrwt beam="1">  1       21 0.18609037E-02 0.12500000E+03</pdfrwt>
<pdfrwt beam="2">  1       21 0.49683185E-01 0.12500000E+03</pdfrwt>
<totfact> 0.52662874E+06</totfact>
</mgrwt>
</event>
<event>
 3      1 +1.7592000e+01 1.25000000e+02 7.54677100e-03 1.23506900e-01
       21 -1    0    0  502  501 +0.0000000000e+00 +0.0000000000e+00 +5.8751344596e+01 5.8751344596e+01 0.0000000000e+00 0.0000e+00 1.0000e+00
       21 -1    0    0  501  502 -0.0000000000e+00 -0.0000000000e+00 -6.6487840013e+01 6.6487840013e+01 0.0000000000e+00 0.0000e+00 1.0000e+00
       25  1    1    2    0    0 +0.0000000000e+00 +0.0000000000e+00 -7.7364954169e+00 1.2523918461e+02 1.2500000000e+02 0.0000e+00 0.0000e+00
<mgrwt>
<rscale>  0 0.12500000E+03</rscale>
<asrwt>0</asrwt>
<pdfrwt beam="1">  1       21 0.90386684E-02 0.12500000E+03</pdfrwt>
<pdfrwt beam="2">  1       21 0.10228898E-01 0.12500000E+03</pdfrwt>
<totfact> 0.74011282E+06</totfact>
</mgrwt>
</event>
<event>
 3      1 +1.7592000e+01 1.25000000e+02 7.54677100e-03 1.23506900e-01
       21 -1    0    0  502  501 +0.0000000000e+00 +0.0000000000e+00 +3.5034156588e+02 3.5034156588e+02 0.0000000000e+00 0.0000e+00 -1.0000e+00
       21 -1    0    0  501  502 -0.0000000000e+00 -0.0000000000e+00 -1.1149833136e+01 1.1149833136e+01 0.0000000000e+00 0.0000e+00 -1.0000e+00
       25  1    1    2    0    0 +0.0000000000e+00 +0.0000000000e+00 +3.3919173274e+02 3.6149139901e+02 1.2500000000e+02 0.0000e+00 0.0000e+00
<mgrwt>
<rscale>  0 0.12500000E+03</rscale>
<asrwt>0</asrwt>
<pdfrwt beam="1">  1       21 0.53898694E-01 0.12500000E+03</pdfrwt>
<pdfrwt beam="2">  1       21 0.17153592E-02 0.12500000E+03</pdfrwt>
<totfact> 0.50700800E+06</totfact>
</mgrwt>
</event>
<event>
 3      1 +1.7592000e+01 1.25000000e+02 7.54677100e-03 1.23506900e-01
       21 -1    0    0  502  501 +0.0000000000e+00 +0.0000000000e+00 +3.7511415086e+01 3.7511415086e+01 0.0000000000e+00 0.0000e+00 -1.0000e+00
       21 -1    0    0  501  502 -0.0000000000e+00 -0.0000000000e+00 -1.0413496774e+02 1.0413496774e+02 0.0000000000e+00 0.0000e+00 -1.0000e+00
       25  1    1    2    0    0 +0.0000000000e+00 +0.0000000000e+00 -6.6623552657e+01 1.4164638283e+02 1.2500000000e+02 0.0000e+00 0.0000e+00
<mgrwt>
<rscale>  0 0.12500000E+03</rscale>
<asrwt>0</asrwt>
<pdfrwt beam="1">  1       21 0.57709870E-02 0.12500000E+03</pdfrwt>
<pdfrwt beam="2">  1       21 0.16020764E-01 0.12500000E+03</pdfrwt>
<totfact> 0.71825099E+06</totfact>
</mgrwt>
</event>
<event>
 3      1 +1.7592000e+01 1.25000000e+02 7.54677100e-03 1.23506900e-01
       21 -1    0    0  502  501 +0.0000000000e+00 +0.0000000000e+00 +1.2101769143e+02 1.2101769143e+02 0.0000000000e+00 0.0000e+00 1.0000e+00
       21 -1    0    0  501  502 -0.0000000000e+00 -0.0000000000e+00 -3.2278338431e+01 3.2278338431e+01 0.0000000000e+00 0.0000e+00 1.0000e+00
       25  1    1    2    0    0 +0.0000000000e+00 +0.0000000000e+00 +8.8739352998e+01 1.5329602986e+02 1.2500000000e+02 0.0000e+00 0.0000e+00
<mgrwt>
<rscale>  0 0.12500000E+03</rscale>
<asrwt>0</asrwt>
<pdfrwt beam="1">  1       21 0.18618106E-01 0.12500000E+03</pdfrwt>
<pdfrwt beam="2">  1       21 0.49658983E-02 0.12500000E+03</pdfrwt>
<totfact> 0.70347574E+06</totfact>
</mgrwt>
</event>
<event>
 3      1 +1.7592000e+01 1.25000000e+02 7.54677100e-03 1.23506900e-01
       21 -1    0    0  502  501 +0.0000000000e+00 +0.0000000000e+00 +1.8054388493e+01 1.8054388493e+01 0.0000000000e+00 0.0000e+00 -1.0000e+00
       21 -1    0    0  501  502 -0.0000000000e+00 -0.0000000000e+00 -2.1636013879e+02 2.1636013879e+02 0.0000000000e+00 0.0000e+00 -1.0000e+00
       25  1    1    2    0    0 +0.0000000000e+00 +0.0000000000e+00 -1.9830575030e+02 2.3441452728e+02 1.2500000000e+02 0.0000e+00 0.0000e+00
<mgrwt>
<rscale>  0 0.12500000E+03</rscale>
<asrwt>0</asrwt>
<pdfrwt beam="1">  1       21 0.27775982E-02 0.12500000E+03</pdfrwt>
<pdfrwt beam="2">  1       21 0.33286176E-01 0.12500000E+03</pdfrwt>
<totfact> 0.61377381E+06</totfact>
</mgrwt>
</event>
<event>
 3      1 +1.7592000e+01 1.25000000e+02 7.54677100e-03 1.23506900e-01
       21 -1    0    0  502  501 +0.0000000000e+00 +0.0000000000e+00 +2.1483869367e+02 2.1483869367e+02 0.0000000000e+00 0.0000e+00 -1.0000e+00
       21 -1    0    0  501  502 -0.0000000000e+00 -0.0000000000e+00 -1.8182246099e+01 1.8182246099e+01 0.0000000000e+00 0.0000e+00 -1.0000e+00
       25  1    1    2    0    0 +0.0000000000e+00 +0.0000000000e+00 +1.9665644757e+02 2.3302093977e+02 1.2500000000e+02 0.0000e+00 0.0000e+00
<mgrwt>
<rscale>  0 0.12500000E+03</rscale>
<asrwt>0</asrwt>
<pdfrwt beam="1">  1       21 0.33052105E-01 0.12500000E+03</pdfrwt>
<pdfrwt beam="2">  1       21 0.27972688E-02 0.12500000E+03</pdfrwt>
<totfact> 0.61514623E+06</totfact>
</mgrwt>
</event>
<event>
 3      1 +1.7592000e+01 1.25000000e+02 7.54677100e-03 1.23506900e-01
       21 -1    0    0  502  501 +0.0000000000e+00 +0.0000000000e+00 +6.3144795300e+02 6.3144795300e+02 0.0000000000e+00 0.0000e+00 1.0000e+00
       21 -1    0    0  501  502 -0.0000000000e+00 -0.0000000000e+00 -6.1861788948e+00 6.1861788948e+00 0.0000000000e+00 0.0000e+00 1.0000e+00
       25  1    1    2    0    0 +0.0000000000e+00 +0.0000000000e+00 +6.2526177410e+02 6.3763413189e+02 1.2500000000e+02 0.0000e+00 0.0000e+00
<mgrwt>
<rscale>  0 0.12500000E+03</rscale>
<asrwt>0</asrwt>
<pdfrwt beam="1">  1       21 0.97145788E-01 0.12500000E+03</pdfrwt>
<pdfrwt beam="2">  1       21 0.95172033E-03 0.12500000E+03</pdfrwt>
<totfact> 0.35444122E+06</totfact>
</mgrwt>
</event>
<event>
 3      1 +1.7592000e+01 1.25000000e+02 7.54677100e-03 1.23506900e-01
       21 -1    0    0  502  501 +0.0000000000e+00 +0.0000000000e+00 +2.9545745802e+01 2.9545745802e+01 0.0000000000e+00 0.0000e+00 1.0000e+00
       21 -1    0    0  501  502 -0.0000000000e+00 -0.0000000000e+00 -1.3221023514e+02 1.3221023514e+02 0.0000000000e+00 0.0000e+00 1.0000e+00
       25  1    1    2    0    0 +0.0000000000e+00 +0.0000000000e+00 -1.0266448934e+02 1.6175598095e+02 1.2500000000e+02 0.0000e+00 0.0000e+00
<mgrwt>
<rscale>  0 0.12500000E+03</rscale>
<asrwt>0</asrwt>
<pdfrwt beam="1">  1       21 0.45454994E-02 0.12500000E+03</pdfrwt>
<pdfrwt beam="2">  1       21 0.20340036E-01 0.12500000E+03</pdfrwt>
<totfact> 0.69305568E+06</totfact>
</mgrwt>
</event>
<event>
 3      1 +1.7592000e+01 1.25000000e+02 7.54677100e-03 1.23506900e-01
       21 -1    0    0  502  501 +0.0000000000e+00 +0.0000000000e+00 +8.0244517226e+00 8.0244517226e+00 0.0000000000e+00 0.0000e+00 -1.0000e+00
       21 -1    0    0  501  502 -0.0000000000e+00 -0.0000000000e+00 -4.8679338290e+02 4.8679338290e+02 0.0000000000e+00 0.0000e+00 -1.0000e+00
       25  1    1    2    0    0 +0.0000000000e+00 +0.0000000000e+00 -4.7876893118e+02 4.9481783463e+02 1.2500000000e+02 0.0000e+00 0.0000e+00
<mgrwt>
<rscale>  0 0.12500000E+03</rscale>
<asrwt>0</asrwt>
<pdfrwt beam="1">  1       21 0.12345308E-02 0.12500000E+03</pdfrwt>
<pdfrwt beam="2">  1       21 0.74891303E-01 0.12500000E+03</pdfrwt>
<totfact> 0.42326508E+06</totfact>
</mgrwt>
</event>
<event>
 3      1 +1.7592000e+01 1.25000000e+02 7.54677100e-03 1.23506900e-01
       21 -1    0    0  502  501 +0.0000000000e+00 +0.0000000000e+00 +5.1089224974e+01 5.1089224974e+01 0.0000000000e+00 0.0000e+00 1.0000e+00
       21 -1    0    0  501  502 -0.0000000000e+00 -0.0000000000e+00 -7.6459370875e+01 7.6459370875e+01 0.0000000000e+00 0.0000e+00 1.0000e+00
       25  1    1    2    0    0 +0.0000000000e+00 +0.0000000000e+00 -2.5370145901e+01 1.2754859585e+02 1.2500000000e+02 0.0000e+00 0.0000e+00
<mgrwt>
<rscale>  0 0.12500000E+03</rscale>
<asrwt>0</asrwt>
<pdfrwt beam="1">  1       21 0.78598808E-02 0.12500000E+03</pdfrwt>
<pdfrwt beam="2">  1       21 0.11762980E-01 0.12500000E+03</pdfrwt>
<totfact> 0.73694632E+06</totfact>
</mgrwt>
</event>
<event>
 3      1 +1.7592000e+01 1.25000000e+02 7.54677100e-03 1.23506900e-01
       21 -1    0    0  502  501 +0.0000000000e+00 +0.0000000000e+00 +5.9055322872e+01 5.9055322872e+01 0.0000000000e+00 0.0000e+00 -1.0000e+00
       21 -1    0    0  501  502 -0.0000000000e+00 -0.0000000000e+00 -6.6145603987e+01 6.6145603987e+01 0.0000000000e+00 0.0000e+00 -1.0000e+00
       25  1    1    2    0    0 +0.0000000000e+00 +0.0000000000e+00 -7.0902811155e+00 1.2520092686e+02 1.2500000000e+02 0.0000e+00 0.0000e+00
<mgrwt>
<rscale>  0 0.12500000E+03</rscale>
<asrwt>0</asrwt>
<pdfrwt beam="1">  1       21 0.90854344E-02 0.12500000E+03</pdfrwt>
<pdfrwt beam="2">  1       21 0.10176247E-01 0.12500000E+03</pdfrwt>
<totfact> 0.74016447E+06</totfact>
</mgrwt>
</event>
<event>
 3      1 +1.7592000e+01 1.25000000e+02 7.54677100e-03 1.23506900e-01
       21 -1    0    0  502  501 +0.0000000000e+00 +0.0000000000e+00 +1.2152793047e+02 1.2152793047e+02 0.0000000000e+00 0.0000e+00 -1.0000e+00
       21 -1    0    0  501  502 -0.0000000000e+00 -0.0000000000e+00 -3.2142816757e+01 3.2142816757e+01 0.0000000000e+00 0.0000e+00 -1.0000e+00
       25  1    1    2    0    0 +0.0000000000e+00 +0.0000000000e+00 +8.9385113715e+01 1.5367074723e+02 1.2500000000e+02 0.0000e+00 0.0000e+00
<mgrwt>
<rscale>  0 0.12500000E+03</rscale>
<asrwt>0</asrwt>
<pdfrwt beam="1">  1       21 0.18696604E-01 0.12500000E+03</pdfrwt>
<pdfrwt beam="2">  1       21 0.49450488E-02 0.12500000E+03</pdfrwt>
<totfact> 0.70301076E+06</totfact>
</mgrwt>
</event>
<event>
 3      1 +1.7592000e+01 1.25000000e+02 7.54677100e-03 1.23506900e-01
       21 -1    0    0  502  501 +0.0000000000e+00 +0.0000000000e+00 +3.4647248158e+01 3.4647248158e+01 0.0000000000e+00 0.0000e+00 -1.0000e+00
       21 -1    0    0  501  502 -0.0000000000e+00 -0.0000000000e+00 -1.1274344162e+02 1.1274344162e+02 0.0000000000e+00 0.0000e+00 -1.0000e+00
       25  1    1    2    0    0 +0.0000000000e+00 +0.0000000000e+00 -7.8096193462e+01 1.4739068978e+02 1.2500000000e+02 0.0000e+00 0.0000e+00
<mgrwt>
<rscale>  0 0.12500000E+03</rscale>
<asrwt>0</asrwt>
<pdfrwt beam="1">  1       21 0.53303460E-02 0.12500000E+03</pdfrwt>
<pdfrwt beam="2">  1       21 0.17345145E-01 0.12500000E+03</pdfrwt>
<totfact> 0.71088537E+06</totfact>
</mgrwt>
</event>
<event>
 3      1 +1.7592000e+01 1.25000000e+02 7.54677100e-03 1.23506900e-01
       21 -1    0    0  502  501 +0.0000000000e+00 +0.0000000000e+00 +5.4639783836e+02 5.4639783836e+02 0.0000000000e+00 0.0000e+00 1.0000e+00
       21 -1    0    0  501  502 -0.0000000000e+00 -0.0000000000e+00 -7.1490949008e+00 7.1490949008e+00 0.0000000000e+00 0.0000e+00 1.0000e+00
       25  1    1    2    0    0 +0.0000000000e+00 +0.0000000000e+00 +5.3924874345e+02 5.5354693326e+02 1.2500000000e+02 0.0000e+00 0.0000e+00
<mgrwt>
<rscale>  0 0.12500000E+03</rscale>
<asrwt>0</asrwt>
<pdfrwt beam="1">  1       21 0.84061173E-01 0.12500000E+03</pdfrwt>
<pdfrwt beam="2">  1       21 0.10998612E-02 0.12500000E+03</pdfrwt>
<totfact> 0.39281390E+06</totfact>
</mgrwt>
</event>
<event>
 3      1 +1.7592000e+01 1.25000000e+02 7.54677100e-03 1.23506900e-01
       21 -1    0    0  502  501 +0.0000000000e+00 +0.0000000000e+00 +7.7602461621e+00 7.7602461621e+00 0.0000000000e+00 0.0000e+00 -1.0000e+00
       21 -1    0    0  501  502 -0.0000000000e+00 -0.0000000000e+00 -5.0336676420e+02 5.0336676420e+02 0.0000000000e+00 0.0000e+00 -1.0000e+00
       25  1    1    2    0    0 +0.0000000000e+00 +0.0000000000e+00 -4.9560651803e+02 5.1112701036e+02 1.2500000000e+02 0.0000e+00 0.0000e+00
<mgrwt>
<rscale>  0 0.12500000E+03</rscale>
<asrwt>0</asrwt>
<pdfrwt beam="1">  1       21 0.11938842E-02 0.12500000E+03</pdfrwt>
<pdfrwt beam="2">  1       21 0.77441030E-01 0.12500000E+03</pdfrwt>
<totfact> 0.41446990E+06</totfact>
</mgrwt>
</event>
<event>
 3      1 +1.7592000e+01 1.25000000e+02 7.54677100e-03 1.23506900e-01
       21 -1    0    0  502  501 +0.0000000000e+00 +0.0000000000e+00 +2.5867149172e+01 2.5867149172e+01 0.0000000000e+00 0.0000e+00 -1.0000e+00
       21 -1    0    0  501  502 -0.0000000000e+00 -0.0000000000e+00 -1.5101200267e+02 1.5101200267e+02 0.0000000000e+00 0.0000e+00 -1.0000e+00
       25  1    1    2    0    0 +0.0000000000e+00 +0.0000000000e+00 -1.2514485350e+02 1.7687915185e+02 1.2500000000e+02 0.0000e+00 0.0000e+00
<mgrwt>
<rscale>  0 0.12500000E+03</rscale>
<asrwt>0</asrwt>
<pdfrwt beam="1">  1       21 0.39795615E-02 0.12500000E+03</pdfrwt>
<pdfrwt beam="2">  1       21 0.23232615E-01 0.12500000E+03</pdfrwt>
<totfact> 0.67511366E+06</totfact>
</mgrwt>
</event>
<event>
 3      1 +1.7592000e+01 1.25000000e+02 7.54677100e-03 1.23506900e-01
       21 -1    0    0  502  501 +0.0000000000e+00 +0.0000000000e+00 +2.6909633888e+01 2.6909633888e+01 0.0000000000e+00 0.0000e+00 1.0000e+00
       21 -1    0    0  501  502 -0.0000000000e+00 -0.0000000000e+00 -1.4516176683e+02 1.4516176683e+02 0.0000000000e+00 0.0000e+00 1.0000e+00
       25  1    1    2    0    0 +0.0000000000e+00 +0.0000000000e+00 -1.1825213294e+02 1.7207140072e+02 1.2500000000e+02 0.0000e+00 0.0000e+00
<mgrwt>
<rscale>  0 0.12500000E+03</rscale>
<asrwt>0</asrwt>
<pdfrwt beam="1">  1       21 0.41399437E-02 0.12500000E+03</pdfrwt>
<pdfrwt beam="2">  1       21 0.22332579E-01 0.12500000E+03</pdfrwt>
<totfact> 0.68072927E+06</totfact>
</mgrwt>
</event>
<event>
 3      1 +1.7592000e+01 1.25000000e+02 7.54677100e-03 1.23506900e-01
       21 -1    0    0  502  501 +0.0000000000e+00 +0.0000000000e+00 +5.9280203878e+00 5.9280203878e+00 0.0000000000e+00 0.0000e+00 1.0000e+00
       21 -1    0    0  501  502 -0.0000000000e+00 -0.0000000000e+00 -6.5894678906e+02 6.5894678906e+02 0.0000000000e+00 0.0000e+00 1.0000e+00
       25  1    1    2    0    0 +0.0000000000e+00 +0.0000000000e+00 -6.5301876867e+02 6.6487480944e+02 1.2500000000e+02 0.0000e+00 0.0000e+00
<mgrwt>
<rscale>  0 0.12500000E+03</rscale>
<asrwt>0</asrwt>
<pdfrwt beam="1">  1       21 0.91200296E-03 0.12500000E+03</pdfrwt>
<pdfrwt beam="2">  1       21 0.10137645E+00 0.12500000E+03</pdfrwt>
<totfact> 0.34308744E+06</totfact>
</mgrwt>
</event>
<event>
 3      1 +1.7592000e+01 1.25000000e+02 7.54677100e-03 1.23506900e-01
       21 -1    0    0  502  501 +0.0000000000e+00 +0.0000000000e+00 +1.8958926953e+02 1.8958926953e+02 0.0000000000e+00 0.0000e+00 -1.0000e+00
       21 -1    0    0  501  502 -0.0000000000e+00 -0.0000000000e+00 -2.0603750464e+01 2.0603750464e+01 0.0000000000e+00 0.0000e+00 -1.0000e+00
       25  1    1    2    0    0 +0.0000000000e+00 +0.0000000000e+00 +1.6898551907e+02 2.1019301999e+02 1.2500000000e+02 0.0000e+00 0.0000e+00
<mgrwt>
<rscale>  0 0.12500000E+03</rscale>
<asrwt>0</asrwt>
<pdfrwt beam="1">  1       21 0.29167579E-01 0.12500000E+03</pdfrwt>
<pdfrwt beam="2">  1       21 0.31698079E-02 0.12500000E+03</pdfrwt>
<totfact> 0.63839234E+06</totfact>
</mgrwt>
</event>
<event>
 3      1 +1.7592000e+01 1.25000000e+02 7.54677100e-03 1.23506900e-01
       21 -1    0    0  502  501 +0.0000000000e+00 +0.0000000000e+00 +4.7912450074e+01 4.7912450074e+01 0.0000000000e+00 0.0000e+00 -1.0000e+00
       21 -1    0    0  501  502 -0.0000000000e+00 -0.0000000000e+00 -8.1528913548e+01 8.1528913548e+01 0.0000000000e+00 0.0000e+00 -1.0000e+00
       25  1    1    2    0    0 +0.0000000000e+00 +0.0000000000e+00 -3.3616463474e+01 1.2944136362e+02 1.2500000000e+02 0.0000e+00 0.0000e+00
<mgrwt>
<rscale>  0 0.12500000E+03</rscale>
<asrwt>0</asrwt>
<pdfrwt beam="1">  1       21 0.73711463E-02 0.12500000E+03</pdfrwt>
<pdfrwt beam="2">  1       21 0.12542910E-01 0.12500000E+03</pdfrwt>
<totfact> 0.73439673E+06</totfact>
</mgrwt>
</event>
<event>
 3      1 +1.7592000e+01 1.25000000e+02 7.54677100e-03 1.23506900e-01
       21 -1    0    0  502  501 +0.0000000000e+00 +0.0000000000e+00 +1.1140527634e+03 1.1140527634e+03 0.0000000000e+00 0.0000e+00 1.0000e+00
       21 -1    0    0  501  502 -0.0000000000e+00 -0.0000000000e+00 -3.5063420048e+00 3.5063420048e+00 0.0000000000e+00 0.0000e+00 1.0000e+00
       25  1    1    2    0    0 +0.0000000000e+00 +0.0000000000e+00 +1.1105464214e+03 1.1175591054e+03 1.2500000000e+02 0.0000e+00 0.0000e+00
<mgrwt>
<rscale>  0 0.12500000E+03</rscale>
<asrwt>0</asrwt>
<pdfrwt beam="1">  1       21 0.17139245E+00 0.12500000E+03</pdfrwt>
<pdfrwt beam="2">  1       21 0.53943812E-03 0.12500000E+03</pdfrwt>
<totfact> 0.20865114E+06</totfact>
</mgrwt>
</event>
<event>
 3      1 +1.7592000e+01 1.25000000e+02 7.54677100e-03 1.23506900e-01
       21 -1    0    0  502  501 +0.0000000000e+00 +0.0000000000e+00 +3.1115311010e+01 3.1115311010e+01 0.0000000000e+00 0.0000e+00 1.0000e+00
       21 -1    0    0  501  502 -0.0000000000e+00 -0.0000000000e+00 -1.2554108808e+02 1.2554108808e+02 0.0000000000e+00 0.0000e+00 1.0000e+00
       25  1    1    2    0    0 +0.0000000000e+00 +0.0000000000e+00 -9.4425777068e+01 1.5665639909e+02 1.2500000000e+02 0.0000e+00 0.0000e+00
<mgrwt>
<rscale>  0 0.12500000E+03</rscale>
<asrwt>0</asrwt>
<pdfrwt beam="1">  1       21 0.47869709E-02 0.12500000E+03</pdfrwt>
<pdfrwt beam="2">  1       21 0.19314014E-01 0.12500000E+03</pdfrwt>
<totfact> 0.69930372E+06</totfact>
</mgrwt>
</event>
<event>
 3      1 +1.7592000e+01 1.25000000e+02 7.54677100e-03 1.23506900e-01
       21 -1    0    0  502  501 +0.0000000000e+00 +0.0000000000e+00 +1.3296919449e+03 1.3296919449e+03 0.0000000000e+00 0.0000e+00 1.0000e+00
       21 -1    0    0  501  502 -0.0000000000e+00 -0.0000000000e+00 -2.9377105089e+00 2.9377105089e+00 0.0000000000e+00 0.0000e+00 1.0000e+00
       25  1    1    2    0    0 +0.0000000000e+00 +0.0000000000e+00 +1.3267542344e+03 1.3326296554e+03 1.2500000000e+02 0.0000e+00 0.0000e+00
<mgrwt>
<rscale>  0 0.12500000E+03</rscale>
<asrwt>0</asrwt>
<pdfrwt beam="1">  1       21 0.20456751E+00 0.12500000E+03</pdfrwt>
<pdfrwt beam="2">  1       21 0.45195652E-03 0.12500000E+03</pdfrwt>
<totfact> 0.16676519E+06</totfact>
</mgrwt>
</event>
<event>
 3      1 +1.7592000e+01 1.25000000e+02 7.54677100e-03 1.23506900e-01
       21 -1    0    0  502  501 +0.0000000000e+00 +0.0000000000e+00 +2.6793998914e+00 2.6793998914e+00 0.0000000000e+00 0.0000e+00 -1.0000e+00
       21 -1    0    0  501  502 -0.0000000000e+00 -0.0000000000e+00 -1.4578824208e+03 1.4578824208e+03 0.0000000000e+00 0.0000e+00 -1.0000e+00
       25  1    1    2    0    0 +0.0000000000e+00 +0.0000000000e+00 -1.4552030209e+03 1.4605618207e+03 1.2500000000e+02 0.0000e+00 0.0000e+00
<mgrwt>
<rscale>  0 0.12500000E+03</rscale>
<asrwt>0</asrwt>
<pdfrwt beam="1">  1       21 0.41221552E-03 0.12500000E+03</pdfrwt>
<pdfrwt beam="2">  1       21 0.22428952E+00 0.12500000E+03</pdfrwt>
<totfact> 0.14587797E+06</totfact>
</mgrwt>
</event>
<event>
 3      1 +1.7592000e+01 1.25000000e+02 7.54677100e-03 1.23506900e-01
       21 -1    0    0  502  501 +0.0000000000e+00 +0.0000000000e+00 +1.2156244506e+01 1.2156244506e+01 0.0000000000e+00 0.0000e+00 1.0000e+00
       21 -1    0    0  501  502 -0.0000000000e+00 -0.0000000000e+00 -3.2133690615e+02 3.2133690615e+02 0.0000000000e+00 0.0000e+00 1.0000e+00
       25  1    1    2    0    0 +0.0000000000e+00 +0.0000000000e+00 -3.0918066165e+02 3.3349315066e+02 1.2500000000e+02 0.0000e+00 0.0000e+00
<mgrwt>
<rscale>  0 0.12500000E+03</rscale>
<asrwt>0</asrwt>
<pdfrwt beam="1">  1       21 0.18701914E-02 0.12500000E+03</pdfrwt>
<pdfrwt beam="2">  1       21 0.49436447E-01 0.12500000E+03</pdfrwt>
<totfact> 0.52781106E+06</totfact>
</mgrwt>
</event>
<event>
 3      1 +1.7592000e+01 1.25000000e+02 7.54677100e-03 1.23506900e-01
       21 -1    0    0  502  501 +0.0000000000e+00 +0.0000000000e+00 +1.2197984132e+01 1.2197984132e+01 0.0000000000e+00 0.0000e+00 -1.0000e+00
       21 -1    0    0  501  502 -0.0000000000e+00 -0.0000000000e+00 -3.2023734067e+02 3.2023734067e+02 0.0000000000e+00 0.0000e+00 -1.0000e+00
       25  1    1    2    0    0 +0.0000000000e+00 +0.0000000000e+00 -3.0803935654e+02 3.3243532480e+02 1.2500000000e+02 0.0000e+00 0.0000e+00
<mgrwt>
<rscale>  0 0.12500000E+03</rscale>
<asrwt>0</asrwt>
<pdfrwt beam="1">  1       21 0.18766130E-02 0.12500000E+03</pdfrwt>
<pdfrwt beam="2">  1       21 0.49267281E-01 0.12500000E+03</pdfrwt>
<totfact> 0.52862389E+06</totfact>
</mgrwt>
</event>
<event>
 3      1 +1.7592000e+01 1.25000000e+02 7.54677100e-03 1.23506900e-01
       21 -1    0    0  502  501 +0.0000000000e+00 +0.0000000000e+00 +2.3919375610e+01 2.3919375610e+01 0.0000000000e+00 0.0000e+00 1.0000e+00
       21 -1    0    0  501  502 -0.0000000000e+00 -0.0000000000e+00 -1.6330902879e+02 1.6330902879e+02 0.0000000000e+00 0.0000e+00 1.0000e+00
       25  1    1    2    0    0 +0.0000000000e+00 +0.0000000000e+00 -1.3938965318e+02 1.8722840440e+02 1.2500000000e+02 0.0000e+00 0.0000e+00
<mgrwt>
<rscale>  0 0.12500000E+03</rscale>
<asrwt>0</asrwt>
<pdfrwt beam="1">  1       21 0.36799039E-02 0.12500000E+03</pdfrwt>
<pdfrwt beam="2">  1       21 0.25124466E-01 0.12500000E+03</pdfrwt>
<totfact> 0.66331833E+06</totfact>
</mgrwt>
</event>
<event>
 3      1 +1.7592000e+01 1.25000000e+02 7.54677100e-03 1.23506900e-01
       21 -1    0    0  502  501 +0.0000000000e+00 +0.0000000000e+00 +1.4501708599e+02 1.4501708599e+02 0.0000000000e+00 0.0000e+00 -1.0000e+00
       21 -1    0    0  501  502 -0.0000000000e+00 -0.0000000000e+00 -2.6936481129e+01 2.6936481129e+01 0.0000000000e+00 0.0000e+00 -1.0000e+00
       25  1    1    2    0    0 +0.0000000000e+00 +0.0000000000e+00 +1.1808060486e+02 1.7195356711e+02 1.2500000000e+02 0.0000e+00 0.0000e+00
<mgrwt>
<rscale>  0 0.12500000E+03</rscale>
<asrwt>0</asrwt>
<pdfrwt beam="1">  1       21 0.22310320E-01 0.12500000E+03</pdfrwt>
<pdfrwt beam="2">  1       21 0.41440741E-02 0.12500000E+03</pdfrwt>
<totfact> 0.68086803E+06</totfact>
</mgrwt>
</event>
<event>
 3      1 +1.7592000e+01 1.25000000e+02 7.54677100e-03 1.23506900e-01
       21 -1    0    0  502  501 +0.0000000000e+00 +0.0000000000e+00 +9.2708063028e+00 9.2708063028e+00 0.0000000000e+00 0.0000e+00 -1.0000e+00
       21 -1    0    0  501  502 -0.0000000000e+00 -0.0000000000e+00 -4.2134954311e+02 4.2134954311e+02 0.0000000000e+00 0.0000e+00 -1.0000e+00
       25  1    1    2    0    0 +0.0000000000e+00 +0.0000000000e+00 -4.1207873681e+02 4.3062034942e+02 1.2500000000e+02 0.0000e+00 0.0000e+00
<mgrwt>
<rscale>  0 0.12500000E+03</rscale>
<asrwt>0</asrwt>
<pdfrwt beam="1">  1       21 0.14262781E-02 0.12500000E+03</pdfrwt>
<pdfrwt beam="2">  1       21 0.64822997E-01 0.12500000E+03</pdfrwt>
<totfact> 0.46074513E+06</totfact>
</mgrwt>
</event>
<event>
 3      1 +1.7592000e+01 1.25000000e+02 7.54677100e-03 1.23506900e-01
       21 -1    0    0  502  501 +0.0000000000e+00 +0.0000000000e+00 +2.2347455436e+01 2.2347455436e+01 0.0000000000e+00 0.0000e+00 1.0000e+00
       21 -1    0    0  501  502 -0.0000000000e+00 -0.0000000000e+00 -1.7479618703e+02 1.7479618703e+02 0.0000000000e+00 0.0000e+00 1.0000e+00
       25  1    1    2    0    0 +0.0000000000e+00 +0.0000000000e+00 -1.5244873159e+02 1.9714364247e+02 1.2500000000e+02 0.0000e+00 0.0000e+00
<mgrwt>
<rscale>  0 0.12500000E+03</rscale>
<asrwt>0</asrwt>
<pdfrwt beam="1">  1       21 0.34380702E-02 0.12500000E+03</pdfrwt>
<pdfrwt beam="2">  1       21 0.26891720E-01 0.12500000E+03</pdfrwt>
<totfact> 0.65237169E+06</totfact>
</mgrwt>
</event>
<event>
 3      1 +1.7592000e+01 1.25000000e+02 7.54677100e-03 1.23506900e-01
       21 -1    0    0  502  501 +0.0000000000e+00 +0.0000000000e+00 +3.6780326498e+01 3.6780326498e+01 0.0000000000e+00 0.0000e+00 -1.0000e+00
       21 -1    0    0  501  502 -0.0000000000e+00 -0.0000000000e+00 -1.0620487559e+02 1.0620487559e+02 0.0000000000e+00 0.0000e+00 -1.0000e+00
       25  1    1    2    0    0 +0.0000000000e+00 +0.0000000000e+00 -6.9424549095e+01 1.4298520209e+02 1.2500000000e+02 0.0000e+00 0.0000e+00
<mgrwt>
<rscale>  0 0.12500000E+03</rscale>
<asrwt>0</asrwt>
<pdfrwt beam="1">  1       21 0.56585118E-02 0.12500000E+03</pdfrwt>
<pdfrwt beam="2">  1       21 0.16339212E-01 0.12500000E+03</pdfrwt>
<totfact> 0.71651952E+06</totfact>
</mgrwt>
</event>
<event>
 3      1 +1.7592000e+01 1.25000000e+02 7.54677100e-03 1.23506900e-01
       21 -1    0    0  502  501 +0.0000000000e+00 +0.0000000000e+00 +2.6524475309e+02 2.6524475309e+02 0.0000000000e+00 0.0000e+00 1.0000e+00
       21 -1    0    0  501  502 -0.0000000000e+00 -0.0000000000e+00 -1.4726964264e+01 1.4726964264e+01 0.0000000000e+00 0.0000e+00 1.0000e+00
       25  1    1    2    0    0 +0.0000000000e+00 +0.0000000000e+00 +2.5051778883e+02 2.7997171735e+02 1.2500000000e+02 0.0000e+00 0.0000e+00
<mgrwt>
<rscale>  0 0.12500000E+03</rscale>
<asrwt>0</asrwt>
<pdfrwt beam="1">  1       21 0.40806881E-01 0.12500000E+03</pdfrwt>
<pdfrwt beam="2">  1       21 0.22656870E-02 0.12500000E+03</pdfrwt>
<totfact> 0.57162788E+06</totfact>
</mgrwt>
</event>
<event>
 3      1 +1.7592000e+01 1.25000000e+02 7.54677100e-03 1.23506900e-01
       21 -1    0    0  502  501 +0.0000000000e+00 +0.0000000000e+00 +6.5419390882e+01 6.5419390882e+01 0.0000000000e+00 0.0000e+00 1.0000e+00
       21 -1    0    0  501  502 -0.0000000000e+00 -0.0000000000e+00 -5.9710889192e+01 5.9710889192e+01 0.0000000000e+00 0.0000e+00 1.0000e+00
       25  1    1    2    0    0 +0.0000000000e+00 +0.0000000000e+00 +5.7085016902e+00 1.2513028007e+02 1.2500000000e+02 0.0000e+00 0.0000e+00
<mgrwt>
<rscale>  0 0.12500000E+03</rscale>
<asrwt>0</asrwt>
<pdfrwt beam="1">  1       21 0.10064522E-01 0.12500000E+03</pdfrwt>
<pdfrwt beam="2">  1       21 0.91862907E-02 0.12500000E+03</pdfrwt>
<totfact> 0.74025986E+06</totfact>
</mgrwt>
</event>
<event>
 3      1 +1.7592000e+01 1.25000000e+02 7.54677100e-03 1.23506900e-01
       21 -1    0    0  502  501 +0.0000000000e+00 +0.0000000000e+00 +1.9696050713e+02 1.9696050713e+02 0.0000000000e+00 0.0000e+00 1.0000e+00
       21 -1    0    0  501  502 -0.0000000000e+00 -0.0000000000e+00 -1.9832656084e+01 1.9832656084e+01 0.0000000000e+00 0.0000e+00 1.0000e+00
       25  1    1    2    0    0 +0.0000000000e+00 +0.0000000000e+00 +1.7712785105e+02 2.1679316321e+02 1.2500000000e+02 0.0000e+00 0.0000e+00
<mgrwt>
<rscale>  0 0.12500000E+03</rscale>
<asrwt>0</asrwt>
<pdfrwt beam="1">  1       21 0.30301615E-01 0.12500000E+03</pdfrwt>
<pdfrwt beam="2">  1       21 0.30511780E-02 0.12500000E+03</pdfrwt>
<totfact> 0.63151829E+06</totfact>
</mgrwt>
</event>
<event>
 3      1 +1.7592000e+01 1.25000000e+02 7.54677100e-03 1.23506900e-01
       21 -1    0    0  502  501 +0.0000000000e+00 +0.0000000000e+00 +1.8377097435e+02 1.8377097435e+02 0.0000000000e+00 0.0000e+00 -1.0000e+00
       21 -1    0    0  501  502 -0.0000000000e+00 -0.0000000000e+00 -2.1256077102e+01 2.1256077102e+01 0.0000000000e+00 0.0000e+00 -1.0000e+00
       25  1    1    2    0    0 +0.0000000000e+00 +0.0000000000e+00 +1.6251489725e+02 2.0502705145e+02 1.2500000000e+02 0.0000e+00 0.0000e+00
<mgrwt>
<rscale>  0 0.12500000E+03</rscale>
<asrwt>0</asrwt>
<pdfrwt beam="1">  1       21 0.28272456E-01 0.12500000E+03</pdfrwt>
<pdfrwt beam="2">  1       21 0.32701658E-02 0.12500000E+03</pdfrwt>
<totfact> 0.64386575E+06</totfact>
</mgrwt>
</event>
<event>
 3      1 +1.7592000e+01 1.25000000e+02 7.54677100e-03 1.23506900e-01
       21 -1    0    0  502  501 +0.0000000000e+00 +0.0000000000e+00 +3.7184961647e+02 3.7184961647e+02 0.0000000000e+00 0.0000e+00 1.0000e+00
       21 -1    0    0  501  502 -0.0000000000e+00 -0.0000000000e+00 -1.0504918728e+01 1.0504918728e+01 0.0000000000e+00 0.0000e+00 1.0000e+00
       25  1    1    2    0    0 +0.0000000000e+00 +0.0000000000e+00 +3.6134469775e+02 3.8235453520e+02 1.2500000000e+02 0.0000e+00 0.0000e+00
<mgrwt>
<rscale>  0 0.12500000E+03</rscale>
<asrwt>0</asrwt>
<pdfrwt beam="1">  1       21 0.57207623E-01 0.12500000E+03</pdfrwt>
<pdfrwt beam="2">  1       21 0.16161416E-02 0.12500000E+03</pdfrwt>
<totfact> 0.49234190E+06</totfact>
</mgrwt>
</event>
<event>
 3      1 +1.7592000e+01 1.25000000e+02 7.54677100e-03 1.23506900e-01
       21 -1    0    0  502  501 +0.0000000000e+00 +0.0000000000e+00 +1.7212373827e+02 1.7212373827e+02 0.0000000000e+00 0.0000e+00 -1.0000e+00
       21 -1    0    0  501  502 -0.0000000000e+00 -0.0000000000e+00 -2.2694429248e+01 2.2694429248e+01 0.0000000000e+00 0.0000e+00 -1.0000e+00
       25  1    1    2    0    0 +0.0000000000e+00 +0.0000000000e+00 +1.4942930902e+02 1.9481816752e+02 1.2500000000e+02 0.0000e+00 0.0000e+00
<mgrwt>
<rscale>  0 0.12500000E+03</rscale>
<asrwt>0</asrwt>
<pdfrwt beam="1">  1       21 0.26480574E-01 0.12500000E+03</pdfrwt>
<pdfrwt beam="2">  1       21 0.34914508E-02 0.12500000E+03</pdfrwt>
<totfact> 0.65490929E+06</totfact>
</mgrwt>
</event>
<event>
 3      1 +1.7592000e+01 1.25000000e+02 7.54677100e-03 1.23506900e-01
       21 -1    0    0  502  501 +0.0000000000e+00 +0.0000000000e+00 +4.7792861666e+02 4.7792861666e+02 0.0000000000e+00 0.0000e+00 1.0000e+00
       21 -1    0    0  501  502 -0.0000000000e+00 -0.0000000000e+00 -8.1732917088e+00 8.1732917088e+00 0.0000000000e+00 0.0000e+00 1.0000e+00
       25  1    1    2    0    0 +0.0000000000e+00 +0.0000000000e+00 +4.6975532495e+02 4.8610190837e+02 1.2500000000e+02 0.0000e+00 0.0000e+00
<mgrwt>
<rscale>  0 0.12500000E+03</rscale>
<asrwt>0</asrwt>
<pdfrwt beam="1">  1       21 0.73527458E-01 0.12500000E+03</pdfrwt>
<pdfrwt beam="2">  1       21 0.12574299E-02 0.12500000E+03</pdfrwt>
<totfact> 0.42807973E+06</totfact>
</mgrwt>
</event>
<event>
 3      1 +1.7592000e+01 1.25000000e+02 7.54677100e-03 1.23506900e-01
       21 -1    0    0  502  501 +0.0000000000e+00 +0.0000000000e+00 +4.0863007159e+01 4.0863007159e+01 0.0000000000e+00 0.0000e+00 -1.0000e+00
       21 -1    0    0  501  502 -0.0000000000e+00 -0.0000000000e+00 -9.5593796727e+01 9.5593796727e+01 0.0000000000e+00 0.0000e+00 -1.0000e+00
       25  1    1    2    0    0 +0.0000000000e+00 +0.0000000000e+00 -5.4730789568e+01 1.3645680389e+02 1.2500000000e+02 0.0000e+00 0.0000e+00
<mgrwt>
<rscale>  0 0.12500000E+03</rscale>
<asrwt>0</asrwt>
<pdfrwt beam="1">  1       21 0.62866165E-02 0.12500000E+03</pdfrwt>
<pdfrwt beam="2">  1       21 0.14706738E-01 0.12500000E+03</pdfrwt>
<totfact> 0.72504151E+06</totfact>
</mgrwt>
</event>
<event>
 3      1 +1.7592000e+01 1.25000000e+02 7.54677100e-03 1.23506900e-01
       21 -1    0    0  502  501 +0.0000000000e+00 +0.0000000000e+00 +1.6080050028e+01 1.6080050028e+01 0.0000000000e+00 0.0000e+00 1.0000e+00
       21 -1    0    0  501  502 -0.0000000000e+00 -0.0000000000e+00 -2.4292523924e+02 2.4292523924e+02 0.0000000000e+00 0.0000e+00 1.0000e+00
       25  1    1    2    0    0 +0.0000000000e+00 +0.0000000000e+00 -2.2684518921e+02 2.5900528927e+02 1.2500000000e+02 0.0000e+00 0.0000e+00
<mgrwt>
<rscale>  0 0.12500000E+03</rscale>
<asrwt>0</asrwt>
<pdfrwt beam="1">  1       21 0.24738542E-02 0.12500000E+03</pdfrwt>
<pdfrwt beam="2">  1       21 0.37373108E-01 0.12500000E+03</pdfrwt>
<totfact> 0.59040565E+06</totfact>
</mgrwt>
</event>
<event>
 3      1 +1.7592000e+01 1.25000000e+02 7.54677100e-03 1.23506900e-01
       21 -1    0    0  502  501 +0.0000000000e+00 +0.0000000000e+00 +1.0815722241e+02 1.0815722241e+02 0.0000000000e+00 0.0000e+00 -1.0000e+00
       21 -1    0    0  501  502 -0.0000000000e+00 -0.0000000000e+00 -3.6116404555e+01 3.6116404555e+01 0.0000000000e+00 0.0000e+00 -1.0000e+00
       25  1    1    2    0    0 +0.0000000000e+00 +0.0000000000e+00 +7.2040817852e+01 1.4427362696e+02 1.2500000000e+02 0.0000e+00 0.0000e+00
<mgrwt>
<rscale>  0 0.12500000E+03</rscale>
<asrwt>0</asrwt>
<pdfrwt beam="1">  1       21 0.16639573E-01 0.12500000E+03</pdfrwt>
<pdfrwt beam="2">  1       21 0.55563700E-02 0.12500000E+03</pdfrwt>
<totfact> 0.71486186E+06</totfact>
</mgrwt>
</event>
<event>
 3      1 +1.7592000e+01 1.25000000e+02 7.54677100e-03 1.23506900e-01
       21 -1    0    0  502  501 +0.0000000000e+00 +0.0000000000e+00 +1.7469545049e+03 1.7469545049e+03 0.0000000000e+00 0.0000e+00 -1.0000e+00
       21 -1    0    0  501  502 -0.0000000000e+00 -0.0000000000e+00 -2.2360341893e+00 2.2360341893e+00 0.0000000000e+00 0.0000e+00 -1.0000e+00
       25  1    1    2    0    0 +0.0000000000e+00 +0.0000000000e+00 +1.7447184707e+03 1.7491905391e+03 1.2500000000e+02 0.0000e+00 0.0000e+00
<mgrwt>
<rscale>  0 0.12500000E+03</rscale>
<asrwt>0</asrwt>
<pdfrwt beam="1">  1       21 0.26876114E+00 0.12500000E+03</pdfrwt>
<pdfrwt beam="2">  1       21 0.34400666E-03 0.12500000E+03</pdfrwt>
<totfact> 0.10667343E+06</totfact>
</mgrwt>
</event>
<event>
 3      1 +1.7592000e+01 1.25000000e+02 7.54677100e-03 1.23506900e-01
       21 -1    0    0  502  501 +0.0000000000e+00 +0.0000000000e+00 +7.4183700916e+01 7.4183700916e+01 0.0000000000e+00 0.0000e+00 -1.0000e+00
       21 -1    0    0  501  502 -0.0000000000e+00 -0.0000000000e+00 -5.2656445443e+01 5.2656445443e+01 0.0000000000e+00 0.0000e+00 -1.0000e+00
       25  1    1    2    0    0 +0.0000000000e+00 +0.0000000000e+00 +2.1527255473e+01 1.2684014636e+02 1.2500000000e+02 0.0000e+00 0.0000e+00
<mgrwt>
<rscale>  0 0.12500000E+03</rscale>
<asrwt>0</asrwt>
<pdfrwt beam="1">  1       21 0.11412877E-01 0.12500000E+03</pdfrwt>
<pdfrwt beam="2">  1       21 0.81009916E-02 0.12500000E+03</pdfrwt>
<totfact> 0.73790913E+06</totfact>
</mgrwt>
</event>
<event>
 3      1 +1.7592000e+01 1.25000000e+02 7.54677100e-03 1.23506900e-01
       21 -1    0    0  502  501 +0.0000000000e+00 +0.0000000000e+00 +8.7081282794e+00 8.7081282794e+00 0.0000000000e+00 0.0000e+00 -1.0000e+00
       21 -1    0    0  501  502 -0.0000000000e+00 -0.0000000000e+00 -4.4857515584e+02 4.4857515584e+02 0.0000000000e+00 0.0000e+00 -1.0000e+00
       25  1    1    2    0    0 +0.0000000000e+00 +0.0000000000e+00 -4.3986702756e+02 4.5728328412e+02 1.2500000000e+02 0.0000e+00 0.0000e+00
<mgrwt>
<rscale>  0 0.12500000E+03</rscale>
<asrwt>0</asrwt>
<pdfrwt beam="1">  1       21 0.13397116E-02 0.12500000E+03</pdfrwt>
<pdfrwt beam="2">  1       21 0.69011585E-01 0.12500000E+03</pdfrwt>
<totfact> 0.44459628E+06</totfact>
</mgrwt>
</event>
<event>
 3      1 +1.7592000e+01 1.25000000e+02 7.54677100e-03 1.23506900e-01
       21 -1    0    0  502  501 +0.0000000000e+00 +0.0000000000e+00 +1.8078785354e+02 1.8078785354e+02 0.0000000000e+00 0.0000e+00 1.0000e+00
       21 -1    0    0  501  502 -0.0000000000e+00 -0.0000000000e+00 -2.1606816628e+01 2.1606816628e+01 0.0000000000e+00 0.0000e+00 1.0000e+00
       25  1    1    2    0    0 +0.0000000000e+00 +0.0000000000e+00 +1.5918103691e+02 2.0239467017e+02 1.2500000000e+02 0.0000e+00 0.0000e+00
<mgrwt>
<rscale>  0 0.12500000E+03</rscale>
<asrwt>0</asrwt>
<pdfrwt beam="1">  1       21 0.27813515E-01 0.12500000E+03</pdfrwt>
<pdfrwt beam="2">  1       21 0.33241258E-02 0.12500000E+03</pdfrwt>
<totfact> 0.64668694E+06</totfact>
</mgrwt>
</event>
<event>
 3      1 +1.7592000e+01 1.25000000e+02 7.54677100e-03 1.23506900e-01
       21 -1    0    0  502  501 +0.0000000000e+00 +0.0000000000e+00 +1.8874959300e+01 1.8874959300e+01 0.0000000000e+00 0.0000e+00 1.0000e+00
       21 -1    0    0  501  502 -0.0000000000e+00 -0.0000000000e+00 -2.0695408864e+02 2.0695408864e+02 0.0000000000e+00 0.0000e+00 1.0000e+00
       25  1    1    2    0    0 +0.0000000000e+00 +0.0000000000e+00 -1.8807912934e+02 2.2582904794e+02 1.2500000000e+02 0.0000e+00 0.0000e+00
<mgrwt>
<rscale>  0 0.12500000E+03</rscale>
<asrwt>0</asrwt>
<pdfrwt beam="1">  1       21 0.29038399E-02 0.12500000E+03</pdfrwt>
<pdfrwt beam="2">  1       21 0.31839091E-01 0.12500000E+03</pdfrwt>
<totfact> 0.62231526E+06</totfact>
</mgrwt>
</event>
<event>
 3      1 +1.7592000e+01 1.25000000e+02 7.54677100e-03 1.23506900e-01
       21 -1    0    0  502  501 +0.0000000000e+00 +0.0000000000e+00 +5.8486790323e+02 5.8486790323e+02 0.0000000000e+00 0.0000e+00 1.0000e+00
       21 -1    0    0  501  502 -0.0000000000e+00 -0.0000000000e+00 -6.6788585566e+00 6.6788585566e+00 0.0000000000e+00 0.0000e+00 1.0000e+00
       25  1    1    2    0    0 +0.0000000000e+00 +0.0000000000e+00 +5.7818904468e+02 5.9154676179e+02 1.2500000000e+02 0.0000e+00 0.0000e+00
<mgrwt>
<rscale>  0 0.12500000E+03</rscale>
<asrwt>0</asrwt>
<pdfrwt beam="1">  1       21 0.89979637E-01 0.12500000E+03</pdfrwt>
<pdfrwt beam="2">  1       21 0.10275172E-02 0.12500000E+03</pdfrwt>
<totfact> 0.37477741E+06</totfact>
</mgrwt>
</event>
<event>
 3      1 +1.7592000e+01 1.25000000e+02 7.54677100e-03 1.23506900e-01
       21 -1    0    0  502  501 +0.0000000000e+00 +0.0000000000e+00 +3.6690091985e+01 3.6690091985e+01 0.0000000000e+00 0.0000e+00 -1.0000e+00
       21 -1    0    0  501  502 -0.0000000000e+00 -0.0000000000e+00 -1.0646607268e+02 1.0646607268e+02 0.0000000000e+00 0.0000e+00 -1.0000e+00
       25  1    1    2    0    0 +0.0000000000e+00 +0.0000000000e+00 -6.9775980699e+01 1.4315616467e+02 1.2500000000e+02 0.0000e+00 0.0000e+00
<mgrwt>
<rscale>  0 0.12500000E+03</rscale>
<asrwt>0</asrwt>
<pdfrwt beam="1">  1       21 0.56446296E-02 0.12500000E+03</pdfrwt>
<pdfrwt beam="2">  1       21 0.16379396E-01 0.12500000E+03</pdfrwt>
<totfact> 0.71629908E+06</totfact>
</mgrwt>
</event>
<event>
 3      1 +1.7592000e+01 1.25000000e+02 7.54677100e-03 1.23506900e-01
       21 -1    0    0  502  501 +0.0000000000e+00 +0.0000000000e+00 +4.1540367592e+02 4.1540367592e+02 0.0000000000e+00 0.0000e+00 1.0000e+00
       21 -1    0    0  501  502 -0.0000000000e+00 -0.0000000000e+00 -9.4035036917e+00 9.4035036917e+00 0.0000000000e+00 0.0000e+00 1.0000e+00
       25  1    1    2    0    0 +0.0000000000e+00 +0.0000000000e+00 +4.0600017222e+02 4.2480717961e+02 1.2500000000e+02 0.0000e+00 0.0000e+00
<mgrwt>
<rscale>  0 0.12500000E+03</rscale>
<asrwt>0</asrwt>
<pdfrwt beam="1">  1       21 0.63908244E-01 0.12500000E+03</pdfrwt>
<pdfrwt beam="2">  1       21 0.14466932E-02 0.12500000E+03</pdfrwt>
<totfact> 0.46438304E+06</totfact>
</mgrwt>
</event>
<event>
 3      1 +1.7592000e+01 1.25000000e+02 7.54677100e-03 1.23506900e-01
       21 -1    0    0  502  501 +0.0000000000e+00 +0.0000000000e+00 +3.4052006767e+01 3.4052006767e+01 0.0000000000e+00 0.0000e+00 -1.0000e+00
       21 -1    0    0  501  502 -0.0000000000e+00 -0.0000000000e+00 -1.1471423775e+02 1.1471423775e+02 0.0000000000e+00 0.0000e+00 -1.0000e+00
       25  1    1    2    0    0 +0.0000000000e+00 +0.0000000000e+00 -8.0662230980e+01 1.4876624451e+02 1.2500000000e+02 0.0000e+00 0.0000e+00
<mgrwt>
<rscale>  0 0.12500000E+03</rscale>
<asrwt>0</asrwt>
<pdfrwt beam="1">  1       21 0.52387702E-02 0.12500000E+03</pdfrwt>
<pdfrwt beam="2">  1       21 0.17648344E-01 0.12500000E+03</pdfrwt>
<totfact> 0.70914529E+06</totfact>
</mgrwt>
</event>
<event>
 3      1 +1.7592000e+01 1.25000000e+02 7.54677100e-03 1.23506900e-01
       21 -1    0    0  502  501 +0.0000000000e+00 +0.0000000000e+00 +1.1067015364e+01 1.1067015364e+01 0.0000000000e+00 0.0000e+00 -1.0000e+00
       21 -1    0    0  501  502 -0.0000000000e+00 -0.0000000000e+00 -3.5296327615e+02 3.5296327615e+02 0.0000000000e+00 0.0000e+00 -1.0000e+00
       25  1    1    2    0    0 +0.0000000000e+00 +0.0000000000e+00 -3.4189626079e+02 3.6403029152e+02 1.2500000000e+02 0.0000e+00 0.0000e+00
<mgrwt>
<rscale>  0 0.12500000E+03</rscale>
<asrwt>0</asrwt>
<pdfrwt beam="1">  1       21 0.17026180E-02 0.12500000E+03</pdfrwt>
<pdfrwt beam="2">  1       21 0.54302035E-01 0.12500000E+03</pdfrwt>
<totfact> 0.50518658E+06</totfact>
</mgrwt>
</event>
<event>
 3      1 +1.7592000e+01 1.25000000e+02 7.54677100e-03 1.23506900e-01
       21 -1    0    0  502  501 +0.0000000000e+00 +0.0000000000e+00 +1.4078791133e+01 1.4078791133e+01 0.0000000000e+00 0.0000e+00 1.0000e+00
       21 -1    0    0  501  502 -0.0000000000e+00 -0.0000000000e+00 -2.7745634999e+02 2.7745634999e+02 0.0000000000e+00 0.0000e+00 1.0000e+00
       25  1    1    2    0    0 +0.0000000000e+00 +0.0000000000e+00 -2.6337755886e+02 2.9153514112e+02 1.2500000000e+02 0.0000e+00 0.0000e+00
<mgrwt>
<rscale>  0 0.12500000E+03</rscale>
<asrwt>0</asrwt>
<pdfrwt beam="1">  1       21 0.21659679E-02 0.12500000E+03</pdfrwt>
<pdfrwt beam="2">  1       21 0.42685591E-01 0.12500000E+03</pdfrwt>
<totfact> 0.56167056E+06</totfact>
</mgrwt>
</event>
<event>
 3      1 +1.7592000e+01 1.25000000e+02 7.54677100e-03 1.23506900e-01
       21 -1    0    0  502  501 +0.0000000000e+00 +0.0000000000e+00 +4.5616091500e+01 4.5616091500e+01 0.0000000000e+00 0.0000e+00 1.0000e+00
       21 -1    0    0  501  502 -0.0000000000e+00 -0.0000000000e+00 -8.5633158641e+01 8.5633158641e+01 0.0000000000e+00 0.0000e+00 1.0000e+00
       25  1    1    2    0    0 +0.0000000000e+00 +0.0000000000e+00 -4.0017067142e+01 1.3124925014e+02 1.2500000000e+02 0.0000e+00 0.0000e+00
<mgrwt>
<rscale>  0 0.12500000E+03</rscale>
<asrwt>0</asrwt>
<pdfrwt beam="1">  1       21 0.70178602E-02 0.12500000E+03</pdfrwt>
<pdfrwt beam="2">  1       21 0.13174332E-01 0.12500000E+03</pdfrwt>
<totfact> 0.73197102E+06</totfact>
</mgrwt>
</event>
<event>
 3      1 +1.7592000e+01 1.25000000e+02 7.54677100e-03 1.23506900e-01
       21 -1    0    0  502  501 +0.0000000000e+00 +0.0000000000e+00 +1.2437828352e+02 1.2437828352e+02 0.0000000000e+00 0.0000e+00 -1.0000e+00
       21 -1    0    0  501  502 -0.0000000000e+00 -0.0000000000e+00 -3.1406206046e+01 3.1406206046e+01 0.0000000000e+00 0.0000e+00 -1.0000e+00
       25  1    1    2    0    0 +0.0000000000e+00 +0.0000000000e+00 +9.2972077479e+01 1.5578448957e+02 1.2500000000e+02 0.0000e+00 0.0000e+00
<mgrwt>
<rscale>  0 0.12500000E+03</rscale>
<asrwt>0</asrwt>
<pdfrwt beam="1">  1       21 0.19135120E-01 0.12500000E+03</pdfrwt>
<pdfrwt beam="2">  1       21 0.48317241E-02 0.12500000E+03</pdfrwt>
<totfact> 0.70038288E+06</totfact>
</mgrwt>
</event>
<event>
 3      1 +1.7592000e+01 1.25000000e+02 7.54677100e-03 1.23506900e-01
       21 -1    0    0  502  501 +0.0000000000e+00 +0.0000000000e+00 +2.2664031110e+02 2.2664031110e+02 0.0000000000e+00 0.0000e+00 -1.0000e+00
       21 -1    0    0  501  502 -0.0000000000e+00 -0.0000000000e+00 -1.7235459928e+01 1.7235459928e+01 0.0000000000e+00 0.0000e+00 -1.0000e+00
       25  1    1    2    0    0 +0.0000000000e+00 +0.0000000000e+00 +2.0940485118e+02 2.4387577103e+02 1.2500000000e+02 0.0000e+00 0.0000e+00
<mgrwt>
<rscale>  0 0.12500000E+03</rscale>
<asrwt>0</asrwt>
<pdfrwt beam="1">  1       21 0.34867738E-01 0.12500000E+03</pdfrwt>
<pdfrwt beam="2">  1       21 0.26516094E-02 0.12500000E+03</pdfrwt>
<totfact> 0.60459617E+06</totfact>
</mgrwt>
</event>
<event>
 3      1 +1.7592000e+01 1.25000000e+02 7.54677100e-03 1.23506900e-01
       21 -1    0    0  502  501 +0.0000000000e+00 +0.0000000000e+00 +8.7801889806e+01 8.7801889806e+01 0.0000000000e+00 0.0000e+00 1.0000e+00
       21 -1    0    0  501  502 -0.0000000000e+00 -0.0000000000e+00 -4.4489361318e+01 4.4489361318e+01 0.0000000000e+00 0.0000e+00 1.0000e+00
       25  1    1    2    0    0 +0.0000000000e+00 +0.0000000000e+00 +4.3312528487e+01 1.3229125112e+02 1.2500000000e+02 0.0000e+00 0.0000e+00
<mgrwt>
<rscale>  0 0.12500000E+03</rscale>
<asrwt>0</asrwt>
<pdfrwt beam="1">  1       21 0.13507983E-01 0.12500000E+03</pdfrwt>
<pdfrwt beam="2">  1       21 0.68445172E-02 0.12500000E+03</pdfrwt>
<totfact> 0.73057189E+06</totfact>
</mgrwt>
</event>
<event>
 3      1 +1.7592000e+01 1.25000000e+02 7.54677100e-03 1.23506900e-01
       21 -1    0    0  502  501 +0.0000000000e+00 +0.0000000000e+00 +2.9592562373e+02 2.9592562373e+02 0.0000000000e+00 0.0000e+00 1.0000e+00
       21 -1    0    0  501  502 -0.0000000000e+00 -0.0000000000e+00 -1.3200107347e+01 1.3200107347e+01 0.0000000000e+00 0.0000e+00 1.0000e+00
       25  1    1    2    0    0 +0.0000000000e+00 +0.0000000000e+00 +2.8272551639e+02 3.0912573108e+02 1.2500000000e+02 0.0000e+00 0.0000e+00
<mgrwt>
<rscale>  0 0.12500000E+03</rscale>
<asrwt>0</asrwt>
<pdfrwt beam="1">  1       21 0.45527014E-01 0.12500000E+03</pdfrwt>
<pdfrwt beam="2">  1       21 0.20307860E-02 0.12500000E+03</pdfrwt>
<totfact> 0.54706217E+06</totfact>
</mgrwt>
</event>
<event>
 3      1 +1.7592000e+01 1.25000000e+02 7.54677100e-03 1.23506900e-01
       21 -1    0    0  502  501 +0.0000000000e+00 +0.0000000000e+00 +1.1029111204e+01 1.1029111204e+01 0.0000000000e+00 0.0000e+00 -1.0000e+00
       21 -1    0    0  501  502 -0.0000000000e+00 -0.0000000000e+00 -3.5417631828e+02 3.5417631828e+02 0.0000000000e+00 0.0000e+00 -1.0000e+00
       25  1    1    2    0    0 +0.0000000000e+00 +0.0000000000e+00 -3.4314720708e+02 3.6520542948e+02 1.2500000000e+02 0.0000e+00 0.0000e+00
<mgrwt>
<rscale>  0 0.12500000E+03</rscale>
<asrwt>0</asrwt>
<pdfrwt beam="1">  1       21 0.16967864E-02 0.12500000E+03</pdfrwt>
<pdfrwt beam="2">  1       21 0.54488662E-01 0.12500000E+03</pdfrwt>
<totfact> 0.50434702E+06</totfact>
</mgrwt>
</event>
<event>
 3      1 +1.7592000e+01 1.25000000e+02 7.54677100e-03 1.23506900e-01
       21 -1    0    0  502  501 +0.0000000000e+00 +0.0000000000e+00 +4.5656221540e+00 4.5656221540e+00 0.0000000000e+00 0.0000e+00 1.0000e+00
       21 -1    0    0  501  502 -0.0000000000e+00 -0.0000000000e+00 -8.5557890431e+02 8.5557890431e+02 0.0000000000e+00 0.0000e+00 1.0000e+00
       25  1    1    2    0    0 +0.0000000000e+00 +0.0000000000e+00 -8.5101328215e+02 8.6014452646e+02 1.2500000000e+02 0.0000e+00 0.0000e+00
<mgrwt>
<rscale>  0 0.12500000E+03</rscale>
<asrwt>0</asrwt>
<pdfrwt beam="1">  1       21 0.70240386E-03 0.12500000E+03</pdfrwt>
<pdfrwt beam="2">  1       21 0.13162744E+00 0.12500000E+03</pdfrwt>
<totfact> 0.27464320E+06</totfact>
</mgrwt>
</event>
</LesHouchesEvents>
