<LesHouchesEvents version="3.0">
<header>
<!--
#*********************************************************************
#                                                                    *
#                        MadGraph5_aMC@NLO                           *
#                                                                    *
#                           Going Beyond                             *
#                                                                    *
#                   http://madgraph.hep.uiuc.edu                     *
#                   http://madgraph.phys.ucl.ac.be                   *
#                   http://amcatnlo.cern.ch                          *
#                                                                    *
#                     The MadGraph5_aMC@NLO team                     *
#                                                                    *
#....................................................................*
#                                                                    *
# This file contains all the information necessary to reproduce      *
# the events generated:                                              *
#                                                                    *
# 1. software version                                                *
# 2. proc_card          : code generation info including model       *
# 3. param_card         : model primary parameters in the LH format  *
# 4. run_card           : running parameters (collider and cuts)     *
# 5. pythia_card        : present only if pythia has been run        *
# 6. pgs_card           : present only if pgs has been run           *
# 7. delphes_cards      : present only if delphes has been run       *
#                                                                    *
#                                                                    *
#*********************************************************************
-->
<MGVersion>
3.4.1
</MGVersion>
<MG5ProcCard>
<![CDATA[
#************************************************************
#*                     MadGraph5_aMC@NLO                    *
#*                                                          *
#*                *                       *                 *
#*                  *        * *        *                   *
#*                    * * * * 5 * * * *                     *
#*                  *        * *        *                   *
#*                *                       *                 *
#*                                                          *
#*                                                          *
#*         VERSION 3.4.1                 2022-09-01         *
#*                                                          *
#*    The MadGraph5_aMC@NLO Development Team - Find us at   *
#*    https://server06.fynu.ucl.ac.be/projects/madgraph     *
#*                                                          *
#************************************************************
#*                                                          *
#*               Command File for MadGraph5_aMC@NLO         *
#*                                                          *
#*     run as ./bin/mg5_aMC  filename                       *
#*                                                          *
#************************************************************
set group_subprocesses Auto
set ignore_six_quark_processes False
set low_mem_multicore_nlo_generation False
set complex_mass_scheme False
set include_lepton_initiated_processes False
set gauge unitary
set loop_optimized_output True
set loop_color_flows False
set max_npoint_for_channel 0
set default_unset_couplings 99
set max_t_for_channel 99
set zerowidth_tchannel True
set nlo_mixed_expansion True
import model sm
define p = g u c d s u~ c~ d~ s~
define j = g u c d s u~ c~ d~ s~
define l+ = e+ mu+
define l- = e- mu-
define vl = ve vm vt
define vl~ = ve~ vm~ vt~
generate p p > z
output z
]]>
</MG5ProcCard>
<MGProcCard>
#*********************************************************************
#                        MadGraph/MadEvent                           *
#                   http://madgraph.hep.uiuc.edu                     *
#                                                                    *
#                          proc_card.dat                             *
#*********************************************************************
#                                                                    *
#            This Files is generated by MADGRAPH 5                   *
#                                                                    *
# WARNING: This Files is generated for MADEVENT (compatibility issue)*
#          This files is NOT a valid MG4 proc_card.dat               *
#          Running this in MG4 will NEVER reproduce the result of MG5*
#                                                                    *
#*********************************************************************
#*********************************************************************
# Process(es) requested : mg2 input                                  *
#*********************************************************************
# Begin PROCESS # This is TAG. Do not modify this line
p p > z           #Process
# Be carefull the coupling are here in MG5 convention
          
end_coup           # End the couplings input

done               # this tells MG there are no more procs
# End PROCESS  # This is TAG. Do not modify this line
#*********************************************************************
# Model information                                                  *
#*********************************************************************
# Begin MODEL  # This is TAG. Do not modify this line
sm
# End   MODEL  # This is TAG. Do not modify this line
#*********************************************************************
# Start multiparticle definitions                                    *
#*********************************************************************
# Begin MULTIPARTICLES # This is TAG. Do not modify this line

# End  MULTIPARTICLES # This is TAG. Do not modify this line
</MGProcCard>
<MGRunCard>
<![CDATA[
#*********************************************************************
#                       MadGraph5_aMC@NLO                            *
#                                                                    *
#                     run_card.dat MadEvent                          *
#                                                                    *
#  This file is used to set the parameters of the run.               *
#                                                                    *
#  Some notation/conventions:                                        *
#                                                                    *
#   Lines starting with a '# ' are info or comments                  *
#                                                                    *
#   mind the format:   value    = variable     ! comment             *
#                                                                    *
#   To display more options, you can type the command:               *
#      update to_full                                                *
#*********************************************************************
#                                                                    
#*********************************************************************
# Tag name for the run (one word)                                    *
#*********************************************************************
  tag_1     = run_tag ! name of the run 
#*********************************************************************
# Number of events and rnd seed                                      *
# Warning: Do not generate more than 1M events in a single run       *
#*********************************************************************
  1000 = nevents ! Number of unweighted events requested 
 33 = iseed   ! rnd seed (0=assigned automatically=default))
#*********************************************************************
# Collider type and energy                                           *
# lpp: 0=No PDF, 1=proton, -1=antiproton, 2=elastic photon of proton,*
#             +/-3=PDF of electron/positron beam                     *
#             +/-4=PDF of muon/antimuon beam                         *
#*********************************************************************
     1        = lpp1    ! beam 1 type 
     1        = lpp2    ! beam 2 type
     6500.0     = ebeam1  ! beam 1 total energy in GeV
     6500.0     = ebeam2  ! beam 2 total energy in GeV
# To see polarised beam options: type "update beam_pol"

#*********************************************************************
# PDF CHOICE: this automatically fixes alpha_s and its evol.         *
# pdlabel: lhapdf=LHAPDF (installation needed) [1412.7420]           *
#          iww=Improved Weizsaecker-Williams Approx.[hep-ph/9310350] *
#          eva=Effective W/Z/A Approx.       [21yy.zzzzz]            *
#          none=No PDF, same as lhapdf with lppx=0                   *
#*********************************************************************
     nn23lo1    = pdlabel     ! PDF set 
     230000    = lhaid     ! if pdlabel=lhapdf, this is the lhapdf number
# To see heavy ion options: type "update ion_pdf"
#*********************************************************************
# Renormalization and factorization scales                           *
#*********************************************************************
 False = fixed_ren_scale  ! if .true. use fixed ren scale
     False = fixed_fac_scale  ! if .true. use fixed fac scale
 91.188  = scale            ! fixed ren scale
 91.188  = dsqrt_q2fact1    ! fixed fact scale for pdf1
 91.188  = dsqrt_q2fact2    ! fixed fact scale for pdf2
 -1 = dynamical_scale_choice ! Choose one of the preselected dynamical choices
 1.0  = scalefact        ! scale factor for event-by-event scales

 
#*********************************************************************
# Type and output format
#*********************************************************************
  False     = gridpack  !True = setting up the grid pack
  -1.0 = time_of_flight ! threshold (in mm) below which the invariant livetime is not written (-1 means not written)
  average =  event_norm       ! average/sum. Normalization of the weight in the LHEF
# To see MLM/CKKW  merging options: type "update MLM" or "update CKKW"

#*********************************************************************
#
#*********************************************************************
# Phase-Space Optimization strategy (basic options)
#*********************************************************************
   0  = nhel          ! using helicities importance sampling or not.
                             ! 0: sum over helicity, 1: importance sampling
   2  = sde_strategy  ! default integration strategy (hep-ph/2021.00773)
                             ! 1 is old strategy (using amp square)
			     ! 2 is new strategy (using only the denominator)
# To see advanced option for Phase-Space optimization: type "update psoptim"			     
#*********************************************************************
# Generation bias, check the wiki page below for more information:   *
#  'cp3.irmp.ucl.ac.be/projects/madgraph/wiki/LOEventGenerationBias' *
#*********************************************************************
 None = bias_module  ! Bias type of bias, [None, ptj_bias, -custom_folder-]
 {} = bias_parameters ! Specifies the parameters of the module.
#
#*******************************                                                 
# Parton level cuts definition *
#*******************************
  0.0  = dsqrt_shat ! minimal shat for full process
#                                                                    
#
#*********************************************************************
# BW cutoff (M+/-bwcutoff*Gamma) ! Define on/off-shell for "$" and decay  
#*********************************************************************
  15.0  = bwcutoff      ! (M+/-bwcutoff*Gamma)
#*********************************************************************
# Standard Cuts                                                      *
#*********************************************************************
# Minimum and maximum pt's (for max, -1 means no cut)                *
#*********************************************************************
 {} = pt_min_pdg ! pt cut for other particles (use pdg code). Applied on particle and anti-particle
 {}	= pt_max_pdg ! pt cut for other particles (syntax e.g. {6: 100, 25: 50}) 
#
# For display option for energy cut in the partonic center of mass frame type 'update ecut'
#
#*********************************************************************
# Maximum and minimum absolute rapidity (for max, -1 means no cut)   *
#*********************************************************************
 {} = eta_min_pdg ! rap cut for other particles (use pdg code). Applied on particle and anti-particle
 {} = eta_max_pdg ! rap cut for other particles (syntax e.g. {6: 2.5, 23: 5})
#*********************************************************************
# Minimum and maximum DeltaR distance                                *
#*********************************************************************
#*********************************************************************
# Minimum and maximum invariant mass for pairs                       *
#*********************************************************************
 {} = mxx_min_pdg ! min invariant mass of a pair of particles X/X~ (e.g. {6:250})
 {'default': False} = mxx_only_part_antipart ! if True the invariant mass is applied only 
                       ! to pairs of particle/antiparticle and not to pairs of the same pdg codes.  
#*********************************************************************
# Inclusive cuts                                                     *
#*********************************************************************
 0.0  = ptheavy   ! minimum pt for at least one heavy final state
#*********************************************************************
# maximal pdg code for quark to be considered as a light jet         *
# (otherwise b cuts are applied)                                     *
#*********************************************************************
 4 = maxjetflavor    ! Maximum jet pdg code
#*********************************************************************
#
#*********************************************************************
# Store info for systematics studies                                 *
# WARNING: Do not use for interference type of computation           *
#*********************************************************************
   True  = use_syst      ! Enable systematics studies
#
systematics = systematics_program ! none, systematics [python], SysCalc [depreceted, C++]
['--mur=0.5,1,2', '--muf=0.5,1,2', '--pdf=errorset'] = systematics_arguments ! see: https://cp3.irmp.ucl.ac.be/projects/madgraph/wiki/Systematics#Systematicspythonmodule
]]>
</MGRunCard>
<slha>
######################################################################
## PARAM_CARD AUTOMATICALY GENERATED BY MG5                       ####
######################################################################
###################################
## INFORMATION FOR MASS
###################################
BLOCK MASS # 
      5 4.700000e+00 # mb
      6 1.730000e+02 # mt
      15 1.777000e+00 # mta
      23 9.118800e+01 # mz
      25 1.250000e+02 # mh
      1 0.000000e+00 # d : 0.0
      2 0.000000e+00 # u : 0.0
      3 0.000000e+00 # s : 0.0
      4 0.000000e+00 # c : 0.0
      11 0.000000e+00 # e- : 0.0
      12 0.000000e+00 # ve : 0.0
      13 0.000000e+00 # mu- : 0.0
      14 0.000000e+00 # vm : 0.0
      16 0.000000e+00 # vt : 0.0
      21 0.000000e+00 # g : 0.0
      22 0.000000e+00 # a : 0.0
      24 8.041900e+01 # w+ : cmath.sqrt(mz__exp__2/2. + cmath.sqrt(mz__exp__4/4. - (aew*cmath.pi*mz__exp__2)/(gf*sqrt__2)))
###################################
## INFORMATION FOR SMINPUTS
###################################
BLOCK SMINPUTS # 
      1 1.325070e+02 # aewm1
      2 1.166390e-05 # gf
      3 1.300000e-01 # as (note that parameter not used if you use a pdf set)
###################################
## INFORMATION FOR YUKAWA
###################################
BLOCK YUKAWA # 
      5 4.700000e+00 # ymb
      6 1.730000e+02 # ymt
      15 1.777000e+00 # ymtau
###################################
## INFORMATION FOR DECAY
###################################
DECAY 6 1.491500e+00 # wt
DECAY 23 2.441404e+00 # wz
DECAY 24 2.047600e+00 # ww
DECAY 25 6.382339e-03 # wh
DECAY 1 0.000000e+00 # d : 0.0
DECAY 2 0.000000e+00 # u : 0.0
DECAY 3 0.000000e+00 # s : 0.0
DECAY 4 0.000000e+00 # c : 0.0
DECAY 5 0.000000e+00 # b : 0.0
DECAY 11 0.000000e+00 # e- : 0.0
DECAY 12 0.000000e+00 # ve : 0.0
DECAY 13 0.000000e+00 # mu- : 0.0
DECAY 14 0.000000e+00 # vm : 0.0
DECAY 15 0.000000e+00 # ta- : 0.0
DECAY 16 0.000000e+00 # vt : 0.0
DECAY 21 0.000000e+00 # g : 0.0
DECAY 22 0.000000e+00 # a : 0.0
</slha>
<MGGenerationInfo>
#  Number of Events        :       1000
#  Integrated weight (pb)  :       42044.0
</MGGenerationInfo>
</header>
<init>
2212 2212 6.500000e+03 6.500000e+03 0 0 247000 247000 -4 1
4.204400e+04 8.783600e+01 4.204400e+04 1
<generator name='MadGraph5_aMC@NLO' version='3.4.1'>please cite 1405.0301 </generator>
</init>
<event>
 3      1 +4.2044000e+04 9.11880000e+01 7.54677100e-03 1.30000000e-01
        2 -1    0    0  501    0 +0.0000000000e+00 +0.0000000000e+00 +3.4087677367e+02 3.4087677367e+02 0.0000000000e+00 0.0000e+00 -1.0000e+00
       -2 -1    0    0    0  501 -0.0000000000e+00 -0.0000000000e+00 -6.0984290997e+00 6.0984290997e+00 0.0000000000e+00 0.0000e+00 1.0000e+00
       23  1    1    2    0    0 +0.0000000000e+00 +0.0000000000e+00 +3.3477834457e+02 3.4697520277e+02 9.1188000000e+01 0.0000e+00 -1.0000e+00
<mgrwt>
<rscale>  0 0.91188000E+02</rscale>
<asrwt>0</asrwt>
<pdfrwt beam="1">  1        2 0.52442566E-01 0.91188000E+02</pdfrwt>
<pdfrwt beam="2">  1       -2 0.93822013E-03 0.91188000E+02</pdfrwt>
<totfact> 0.18830191E+05</totfact>
</mgrwt>
</event>
<event>
 3      1 +4.2044000e+04 9.11880000e+01 7.54677100e-03 1.30000000e-01
       -2 -1    0    0    0  501 -0.0000000000e+00 +0.0000000000e+00 +4.2037356292e+00 4.2037356292e+00 0.0000000000e+00 0.0000e+00 1.0000e+00
        2 -1    0    0  501    0 +0.0000000000e+00 -0.0000000000e+00 -4.9451559740e+02 4.9451559740e+02 0.0000000000e+00 0.0000e+00 -1.0000e+00
       23  1    1    2    0    0 +0.0000000000e+00 -0.0000000000e+00 -4.9031186177e+02 4.9871933303e+02 9.1188000000e+01 0.0000e+00 1.0000e+00
<mgrwt>
<rscale>  0 0.91188000E+02</rscale>
<asrwt>0</asrwt>
<pdfrwt beam="2">  1        2 0.76079334E-01 0.91188000E+02</pdfrwt>
<pdfrwt beam="1">  1       -2 0.64672847E-03 0.91188000E+02</pdfrwt>
<totfact> 0.21465389E+05</totfact>
</mgrwt>
</event>
<event>
 3      1 +4.2044000e+04 9.11880000e+01 7.54677100e-03 1.30000000e-01
        4 -1    0    0  501    0 +0.0000000000e+00 +0.0000000000e+00 +2.0335419357e+01 2.0335419357e+01 0.0000000000e+00 0.0000e+00 -1.0000e+00
       -4 -1    0    0    0  501 -0.0000000000e+00 -0.0000000000e+00 -1.0222620933e+02 1.0222620933e+02 0.0000000000e+00 0.0000e+00 1.0000e+00
       23  1    1    2    0    0 +0.0000000000e+00 +0.0000000000e+00 -8.1890789972e+01 1.2256162869e+02 9.1188000000e+01 0.0000e+00 -1.0000e+00
<mgrwt>
<rscale>  0 0.91188000E+02</rscale>
<asrwt>0</asrwt>
<pdfrwt beam="1">  1        4 0.31285261E-02 0.91188000E+02</pdfrwt>
<pdfrwt beam="2">  1       -4 0.15727109E-01 0.91188000E+02</pdfrwt>
<totfact> 0.25119964E+04</totfact>
</mgrwt>
</event>
<event>
 3      1 +4.2044000e+04 9.11880000e+01 7.54677100e-03 1.30000000e-01
        1 -1    0    0  501    0 +0.0000000000e+00 +0.0000000000e+00 +1.1977547641e+02 1.1977547641e+02 0.0000000000e+00 0.0000e+00 -1.0000e+00
       -1 -1    0    0    0  501 -0.0000000000e+00 -0.0000000000e+00 -1.7355913734e+01 1.7355913734e+01 0.0000000000e+00 0.0000e+00 1.0000e+00
       23  1    1    2    0    0 +0.0000000000e+00 +0.0000000000e+00 +1.0241956267e+02 1.3713139014e+02 9.1188000000e+01 0.0000e+00 -1.0000e+00
<mgrwt>
<rscale>  0 0.91188000E+02</rscale>
<asrwt>0</asrwt>
<pdfrwt beam="1">  1        1 0.18426996E-01 0.91188000E+02</pdfrwt>
<pdfrwt beam="2">  1       -1 0.26701407E-02 0.91188000E+02</pdfrwt>
<totfact> 0.10766793E+05</totfact>
</mgrwt>
</event>
<event>
 3      1 +4.2044000e+04 9.11880000e+01 7.54677100e-03 1.30000000e-01
        1 -1    0    0  501    0 +0.0000000000e+00 +0.0000000000e+00 +2.6331136405e+00 2.6331136405e+00 0.0000000000e+00 0.0000e+00 -1.0000e+00
       -1 -1    0    0    0  501 -0.0000000000e+00 -0.0000000000e+00 -7.8948846112e+02 7.8948846112e+02 0.0000000000e+00 0.0000e+00 1.0000e+00
       23  1    1    2    0    0 +0.0000000000e+00 +0.0000000000e+00 -7.8685534748e+02 7.9212157476e+02 9.1188000000e+01 0.0000e+00 -1.0000e+00
<mgrwt>
<rscale>  0 0.91188000E+02</rscale>
<asrwt>0</asrwt>
<pdfrwt beam="1">  1        1 0.40509367E-03 0.91188000E+02</pdfrwt>
<pdfrwt beam="2">  1       -1 0.12145998E+00 0.91188000E+02</pdfrwt>
<totfact> 0.33059780E+04</totfact>
</mgrwt>
</event>
<event>
 3      1 +4.2044000e+04 9.11880000e+01 7.54677100e-03 1.30000000e-01
       -3 -1    0    0    0  501 -0.0000000000e+00 +0.0000000000e+00 +4.6678887981e+01 4.6678887981e+01 0.0000000000e+00 0.0000e+00 1.0000e+00
        3 -1    0    0  501    0 +0.0000000000e+00 -0.0000000000e+00 -4.4534326457e+01 4.4534326457e+01 0.0000000000e+00 0.0000e+00 -1.0000e+00
       23  1    1    2    0    0 +0.0000000000e+00 -0.0000000000e+00 +2.1445615239e+00 9.1213214438e+01 9.1188000000e+01 0.0000e+00 1.0000e+00
<mgrwt>
<rscale>  0 0.91188000E+02</rscale>
<asrwt>0</asrwt>
<pdfrwt beam="2">  1        3 0.68514349E-02 0.91188000E+02</pdfrwt>
<pdfrwt beam="1">  1       -3 0.71813674E-02 0.91188000E+02</pdfrwt>
<totfact> 0.35324013E+04</totfact>
</mgrwt>
</event>
<event>
 3      1 +4.2044000e+04 9.11880000e+01 7.54677100e-03 1.30000000e-01
        2 -1    0    0  501    0 +0.0000000000e+00 +0.0000000000e+00 +6.3813375680e+02 6.3813375680e+02 0.0000000000e+00 0.0000e+00 -1.0000e+00
       -2 -1    0    0    0  501 -0.0000000000e+00 -0.0000000000e+00 -3.2576443635e+00 3.2576443635e+00 0.0000000000e+00 0.0000e+00 1.0000e+00
       23  1    1    2    0    0 +0.0000000000e+00 +0.0000000000e+00 +6.3487611244e+02 6.4139140116e+02 9.1188000000e+01 0.0000e+00 -1.0000e+00
<mgrwt>
<rscale>  0 0.91188000E+02</rscale>
<asrwt>0</asrwt>
<pdfrwt beam="1">  1        2 0.98174325E-01 0.91188000E+02</pdfrwt>
<pdfrwt beam="2">  1       -2 0.50117656E-03 0.91188000E+02</pdfrwt>
<totfact> 0.23165902E+05</totfact>
</mgrwt>
</event>
<event>
 3      1 +4.2044000e+04 9.11880000e+01 7.54677100e-03 1.30000000e-01
       -1 -1    0    0    0  501 -0.0000000000e+00 +0.0000000000e+00 +1.1551749878e+02 1.1551749878e+02 0.0000000000e+00 0.0000e+00 1.0000e+00
        1 -1    0    0  501    0 +0.0000000000e+00 -0.0000000000e+00 -1.7995653108e+01 1.7995653108e+01 0.0000000000e+00 0.0000e+00 -1.0000e+00
       23  1    1    2    0    0 +0.0000000000e+00 -0.0000000000e+00 +9.7521845672e+01 1.3351315189e+02 9.1188000000e+01 0.0000e+00 1.0000e+00
<mgrwt>
<rscale>  0 0.91188000E+02</rscale>
<asrwt>0</asrwt>
<pdfrwt beam="2">  1        1 0.27685621E-02 0.91188000E+02</pdfrwt>
<pdfrwt beam="1">  1       -1 0.17771922E-01 0.91188000E+02</pdfrwt>
<totfact> 0.79112984E+04</totfact>
</mgrwt>
</event>
<event>
 3      1 +4.2044000e+04 9.11880000e+01 7.54677100e-03 1.30000000e-01
        1 -1    0    0  501    0 +0.0000000000e+00 +0.0000000000e+00 +3.2102636954e+01 3.2102636954e+01 0.0000000000e+00 0.0000e+00 -1.0000e+00
       -1 -1    0    0    0  501 -0.0000000000e+00 -0.0000000000e+00 -6.4755204968e+01 6.4755204968e+01 0.0000000000e+00 0.0000e+00 1.0000e+00
       23  1    1    2    0    0 +0.0000000000e+00 +0.0000000000e+00 -3.2652568014e+01 9.6857841922e+01 9.1188000000e+01 0.0000e+00 -1.0000e+00
<mgrwt>
<rscale>  0 0.91188000E+02</rscale>
<asrwt>0</asrwt>
<pdfrwt beam="1">  1        1 0.49388673E-02 0.91188000E+02</pdfrwt>
<pdfrwt beam="2">  1       -1 0.99623390E-02 0.91188000E+02</pdfrwt>
<totfact> 0.87597397E+04</totfact>
</mgrwt>
</event>
<event>
 3      1 +4.2044000e+04 9.11880000e+01 7.54677100e-03 1.30000000e-01
        1 -1    0    0  501    0 +0.0000000000e+00 +0.0000000000e+00 +4.5187297611e+00 4.5187297611e+00 0.0000000000e+00 0.0000e+00 -1.0000e+00
       -1 -1    0    0    0  501 -0.0000000000e+00 -0.0000000000e+00 -4.6004362861e+02 4.6004362861e+02 0.0000000000e+00 0.0000e+00 1.0000e+00
       23  1    1    2    0    0 +0.0000000000e+00 +0.0000000000e+00 -4.5552489885e+02 4.6456235837e+02 9.1188000000e+01 0.0000e+00 -1.0000e+00
<mgrwt>
<rscale>  0 0.91188000E+02</rscale>
<asrwt>0</asrwt>
<pdfrwt beam="1">  1        1 0.69518922E-03 0.91188000E+02</pdfrwt>
<pdfrwt beam="2">  1       -1 0.70775940E-01 0.91188000E+02</pdfrwt>
<totfact> 0.49412967E+04</totfact>
</mgrwt>
</event>
<event>
 3      1 +4.2044000e+04 9.11880000e+01 7.54677100e-03 1.30000000e-01
        1 -1    0    0  501    0 +0.0000000000e+00 +0.0000000000e+00 +2.0607026435e+01 2.0607026435e+01 0.0000000000e+00 0.0000e+00 -1.0000e+00
       -1 -1    0    0    0  501 -0.0000000000e+00 -0.0000000000e+00 -1.0087883580e+02 1.0087883580e+02 0.0000000000e+00 0.0000e+00 1.0000e+00
       23  1    1    2    0    0 +0.0000000000e+00 +0.0000000000e+00 -8.0271809362e+01 1.2148586223e+02 9.1188000000e+01 0.0000e+00 -1.0000e+00
<mgrwt>
<rscale>  0 0.91188000E+02</rscale>
<asrwt>0</asrwt>
<pdfrwt beam="1">  1        1 0.31703117E-02 0.91188000E+02</pdfrwt>
<pdfrwt beam="2">  1       -1 0.15519821E-01 0.91188000E+02</pdfrwt>
<totfact> 0.81212374E+04</totfact>
</mgrwt>
</event>
<event>
 3      1 +4.2044000e+04 9.11880000e+01 7.54677100e-03 1.30000000e-01
       -2 -1    0    0    0  501 -0.0000000000e+00 +0.0000000000e+00 +5.4875170058e+01 5.4875170058e+01 0.0000000000e+00 0.0000e+00 1.0000e+00
        2 -1    0    0  501    0 +0.0000000000e+00 -0.0000000000e+00 -3.7882576651e+01 3.7882576651e+01 0.0000000000e+00 0.0000e+00 -1.0000e+00
       23  1    1    2    0    0 +0.0000000000e+00 -0.0000000000e+00 +1.6992593407e+01 9.2757746710e+01 9.1188000000e+01 0.0000e+00 1.0000e+00
<mgrwt>
<rscale>  0 0.91188000E+02</rscale>
<asrwt>0</asrwt>
<pdfrwt beam="2">  1        2 0.58280887E-02 0.91188000E+02</pdfrwt>
<pdfrwt beam="1">  1       -2 0.84423339E-02 0.91188000E+02</pdfrwt>
<totfact> 0.94020477E+04</totfact>
</mgrwt>
</event>
<event>
 3      1 +4.2044000e+04 9.11880000e+01 7.54677100e-03 1.30000000e-01
       -1 -1    0    0    0  501 -0.0000000000e+00 +0.0000000000e+00 +5.2085714064e+01 5.2085714064e+01 0.0000000000e+00 0.0000e+00 1.0000e+00
        1 -1    0    0  501    0 +0.0000000000e+00 -0.0000000000e+00 -3.9911382101e+01 3.9911382101e+01 0.0000000000e+00 0.0000e+00 -1.0000e+00
       23  1    1    2    0    0 +0.0000000000e+00 -0.0000000000e+00 +1.2174331963e+01 9.1997096165e+01 9.1188000000e+01 0.0000e+00 1.0000e+00
<mgrwt>
<rscale>  0 0.91188000E+02</rscale>
<asrwt>0</asrwt>
<pdfrwt beam="2">  1        1 0.61402126E-02 0.91188000E+02</pdfrwt>
<pdfrwt beam="1">  1       -1 0.80131868E-02 0.91188000E+02</pdfrwt>
<totfact> 0.90601815E+04</totfact>
</mgrwt>
</event>
<event>
 3      1 +4.2044000e+04 9.11880000e+01 7.54677100e-03 1.30000000e-01
        1 -1    0    0  501    0 +0.0000000000e+00 +0.0000000000e+00 +1.5967604179e+03 1.5967604179e+03 0.0000000000e+00 0.0000e+00 -1.0000e+00
       -1 -1    0    0    0  501 -0.0000000000e+00 -0.0000000000e+00 -1.3018940178e+00 1.3018940178e+00 0.0000000000e+00 0.0000e+00 1.0000e+00
       23  1    1    2    0    0 +0.0000000000e+00 +0.0000000000e+00 +1.5954585239e+03 1.5980623119e+03 9.1188000000e+01 0.0000e+00 -1.0000e+00
<mgrwt>
<rscale>  0 0.91188000E+02</rscale>
<asrwt>0</asrwt>
<pdfrwt beam="1">  1        1 0.24565388E+00 0.91188000E+02</pdfrwt>
<pdfrwt beam="2">  1       -1 0.20029266E-03 0.91188000E+02</pdfrwt>
<totfact> 0.10456845E+05</totfact>
</mgrwt>
</event>
<event>
 3      1 +4.2044000e+04 9.11880000e+01 7.54677100e-03 1.30000000e-01
       -1 -1    0    0    0  501 -0.0000000000e+00 +0.0000000000e+00 +7.8245865149e+01 7.8245865149e+01 0.0000000000e+00 0.0000e+00 1.0000e+00
        1 -1    0    0  501    0 +0.0000000000e+00 -0.0000000000e+00 -2.6567702102e+01 2.6567702102e+01 0.0000000000e+00 0.0000e+00 -1.0000e+00
       23  1    1    2    0    0 +0.0000000000e+00 -0.0000000000e+00 +5.1678163047e+01 1.0481356725e+02 9.1188000000e+01 0.0000e+00 1.0000e+00
<mgrwt>
<rscale>  0 0.91188000E+02</rscale>
<asrwt>0</asrwt>
<pdfrwt beam="2">  1        1 0.40873388E-02 0.91188000E+02</pdfrwt>
<pdfrwt beam="1">  1       -1 0.12037825E-01 0.91188000E+02</pdfrwt>
<totfact> 0.84940656E+04</totfact>
</mgrwt>
</event>
<event>
 3      1 +4.2044000e+04 9.11880000e+01 7.54677100e-03 1.30000000e-01
       -2 -1    0    0    0  501 -0.0000000000e+00 +0.0000000000e+00 +6.9761896872e+00 6.9761896872e+00 0.0000000000e+00 0.0000e+00 1.0000e+00
        2 -1    0    0  501    0 +0.0000000000e+00 -0.0000000000e+00 -2.9798685661e+02 2.9798685661e+02 0.0000000000e+00 0.0000e+00 -1.0000e+00
       23  1    1    2    0    0 +0.0000000000e+00 -0.0000000000e+00 -2.9101066692e+02 3.0496304630e+02 9.1188000000e+01 0.0000e+00 1.0000e+00
<mgrwt>
<rscale>  0 0.91188000E+02</rscale>
<asrwt>0</asrwt>
<pdfrwt beam="2">  1        2 0.45844141E-01 0.91188000E+02</pdfrwt>
<pdfrwt beam="1">  1       -2 0.10732597E-02 0.91188000E+02</pdfrwt>
<totfact> 0.17915165E+05</totfact>
</mgrwt>
</event>
<event>
 3      1 +4.2044000e+04 9.11880000e+01 7.54677100e-03 1.30000000e-01
        1 -1    0    0  501    0 +0.0000000000e+00 +0.0000000000e+00 +5.0163534310e+01 5.0163534310e+01 0.0000000000e+00 0.0000e+00 -1.0000e+00
       -1 -1    0    0    0  501 -0.0000000000e+00 -0.0000000000e+00 -4.1440717139e+01 4.1440717139e+01 0.0000000000e+00 0.0000e+00 1.0000e+00
       23  1    1    2    0    0 +0.0000000000e+00 +0.0000000000e+00 +8.7228171708e+00 9.1604251448e+01 9.1188000000e+01 0.0000e+00 -1.0000e+00
<mgrwt>
<rscale>  0 0.91188000E+02</rscale>
<asrwt>0</asrwt>
<pdfrwt beam="1">  1        1 0.77174668E-02 0.91188000E+02</pdfrwt>
<pdfrwt beam="2">  1       -1 0.63754949E-02 0.91188000E+02</pdfrwt>
<totfact> 0.93777744E+04</totfact>
</mgrwt>
</event>
<event>
 3      1 +4.2044000e+04 9.11880000e+01 7.54677100e-03 1.30000000e-01
        4 -1    0    0  501    0 +0.0000000000e+00 +0.0000000000e+00 +4.9874786732e+01 4.9874786732e+01 0.0000000000e+00 0.0000e+00 -1.0000e+00
       -4 -1    0    0    0  501 -0.0000000000e+00 -0.0000000000e+00 -4.1680636093e+01 4.1680636093e+01 0.0000000000e+00 0.0000e+00 1.0000e+00
       23  1    1    2    0    0 +0.0000000000e+00 +0.0000000000e+00 +8.1941506389e+00 9.1555422825e+01 9.1188000000e+01 0.0000e+00 -1.0000e+00
<mgrwt>
<rscale>  0 0.91188000E+02</rscale>
<asrwt>0</asrwt>
<pdfrwt beam="1">  1        4 0.76730441E-02 0.91188000E+02</pdfrwt>
<pdfrwt beam="2">  1       -4 0.64124056E-02 0.91188000E+02</pdfrwt>
<totfact> 0.26983021E+04</totfact>
</mgrwt>
</event>
<event>
 3      1 +4.2044000e+04 9.11880000e+01 7.54677100e-03 1.30000000e-01
        1 -1    0    0  501    0 +0.0000000000e+00 +0.0000000000e+00 +7.4594211764e+01 7.4594211764e+01 0.0000000000e+00 0.0000e+00 -1.0000e+00
       -1 -1    0    0    0  501 -0.0000000000e+00 -0.0000000000e+00 -2.7868286116e+01 2.7868286116e+01 0.0000000000e+00 0.0000e+00 1.0000e+00
       23  1    1    2    0    0 +0.0000000000e+00 +0.0000000000e+00 +4.6725925648e+01 1.0246249788e+02 9.1188000000e+01 0.0000e+00 -1.0000e+00
<mgrwt>
<rscale>  0 0.91188000E+02</rscale>
<asrwt>0</asrwt>
<pdfrwt beam="1">  1        1 0.11476032E-01 0.91188000E+02</pdfrwt>
<pdfrwt beam="2">  1       -1 0.42874287E-02 0.91188000E+02</pdfrwt>
<totfact> 0.99611294E+04</totfact>
</mgrwt>
</event>
<event>
 3      1 +4.2044000e+04 9.11880000e+01 7.54677100e-03 1.30000000e-01
        2 -1    0    0  501    0 +0.0000000000e+00 +0.0000000000e+00 +3.7477309227e+02 3.7477309227e+02 0.0000000000e+00 0.0000e+00 -1.0000e+00
       -2 -1    0    0    0  501 -0.0000000000e+00 -0.0000000000e+00 -5.5468572287e+00 5.5468572287e+00 0.0000000000e+00 0.0000e+00 1.0000e+00
       23  1    1    2    0    0 +0.0000000000e+00 +0.0000000000e+00 +3.6922623504e+02 3.8031994950e+02 9.1188000000e+01 0.0000e+00 -1.0000e+00
<mgrwt>
<rscale>  0 0.91188000E+02</rscale>
<asrwt>0</asrwt>
<pdfrwt beam="1">  1        2 0.57657379E-01 0.91188000E+02</pdfrwt>
<pdfrwt beam="2">  1       -2 0.85336294E-03 0.91188000E+02</pdfrwt>
<totfact> 0.19492684E+05</totfact>
</mgrwt>
</event>
<event>
 3      1 +4.2044000e+04 9.11880000e+01 7.54677100e-03 1.30000000e-01
       -1 -1    0    0    0  501 -0.0000000000e+00 +0.0000000000e+00 +2.5083514137e+00 2.5083514137e+00 0.0000000000e+00 0.0000e+00 1.0000e+00
        1 -1    0    0  501    0 +0.0000000000e+00 -0.0000000000e+00 -8.2875661865e+02 8.2875661865e+02 0.0000000000e+00 0.0000e+00 -1.0000e+00
       23  1    1    2    0    0 +0.0000000000e+00 -0.0000000000e+00 -8.2624826724e+02 8.3126497006e+02 9.1188000000e+01 0.0000e+00 1.0000e+00
<mgrwt>
<rscale>  0 0.91188000E+02</rscale>
<asrwt>0</asrwt>
<pdfrwt beam="2">  1        1 0.12750134E+00 0.91188000E+02</pdfrwt>
<pdfrwt beam="1">  1       -1 0.38589923E-03 0.91188000E+02</pdfrwt>
<totfact> 0.14075978E+05</totfact>
</mgrwt>
</event>
<event>
 3      1 +4.2044000e+04 9.11880000e+01 7.54677100e-03 1.30000000e-01
        2 -1    0    0  501    0 +0.0000000000e+00 +0.0000000000e+00 +1.0690342429e+02 1.0690342429e+02 0.0000000000e+00 0.0000e+00 -1.0000e+00
       -2 -1    0    0    0  501 -0.0000000000e+00 -0.0000000000e+00 -1.9445708589e+01 1.9445708589e+01 0.0000000000e+00 0.0000e+00 1.0000e+00
       23  1    1    2    0    0 +0.0000000000e+00 +0.0000000000e+00 +8.7457715704e+01 1.2634913288e+02 9.1188000000e+01 0.0000e+00 -1.0000e+00
<mgrwt>
<rscale>  0 0.91188000E+02</rscale>
<asrwt>0</asrwt>
<pdfrwt beam="1">  1        2 0.16446680E-01 0.91188000E+02</pdfrwt>
<pdfrwt beam="2">  1       -2 0.29916476E-02 0.91188000E+02</pdfrwt>
<totfact> 0.12517723E+05</totfact>
</mgrwt>
</event>
<event>
 3      1 +4.2044000e+04 9.11880000e+01 7.54677100e-03 1.30000000e-01
       -1 -1    0    0    0  501 -0.0000000000e+00 +0.0000000000e+00 +2.2186207911e+02 2.2186207911e+02 0.0000000000e+00 0.0000e+00 1.0000e+00
        1 -1    0    0  501    0 +0.0000000000e+00 -0.0000000000e+00 -9.3698429416e+00 9.3698429416e+00 0.0000000000e+00 0.0000e+00 -1.0000e+00
       23  1    1    2    0    0 +0.0000000000e+00 -0.0000000000e+00 +2.1249223617e+02 2.3123192206e+02 9.1188000000e+01 0.0000e+00 1.0000e+00
<mgrwt>
<rscale>  0 0.91188000E+02</rscale>
<asrwt>0</asrwt>
<pdfrwt beam="2">  1        1 0.14415145E-02 0.91188000E+02</pdfrwt>
<pdfrwt beam="1">  1       -1 0.34132624E-01 0.91188000E+02</pdfrwt>
<totfact> 0.67294762E+04</totfact>
</mgrwt>
</event>
<event>
 3      1 +4.2044000e+04 9.11880000e+01 7.54677100e-03 1.30000000e-01
        2 -1    0    0  501    0 +0.0000000000e+00 +0.0000000000e+00 +4.3080433901e+01 4.3080433901e+01 0.0000000000e+00 0.0000e+00 -1.0000e+00
       -2 -1    0    0    0  501 -0.0000000000e+00 -0.0000000000e+00 -4.8254222340e+01 4.8254222340e+01 0.0000000000e+00 0.0000e+00 1.0000e+00
       23  1    1    2    0    0 +0.0000000000e+00 +0.0000000000e+00 -5.1737884389e+00 9.1334656242e+01 9.1188000000e+01 0.0000e+00 -1.0000e+00
<mgrwt>
<rscale>  0 0.91188000E+02</rscale>
<asrwt>0</asrwt>
<pdfrwt beam="1">  1        2 0.66277591E-02 0.91188000E+02</pdfrwt>
<pdfrwt beam="2">  1       -2 0.74237265E-02 0.91188000E+02</pdfrwt>
<totfact> 0.97203488E+04</totfact>
</mgrwt>
</event>
<event>
 3      1 +4.2044000e+04 9.11880000e+01 7.54677100e-03 1.30000000e-01
        2 -1    0    0  501    0 +0.0000000000e+00 +0.0000000000e+00 +1.1999579551e+02 1.1999579551e+02 0.0000000000e+00 0.0000e+00 -1.0000e+00
       -2 -1    0    0    0  501 -0.0000000000e+00 -0.0000000000e+00 -1.7324047290e+01 1.7324047290e+01 0.0000000000e+00 0.0000e+00 1.0000e+00
       23  1    1    2    0    0 +0.0000000000e+00 +0.0000000000e+00 +1.0267174822e+02 1.3731984280e+02 9.1188000000e+01 0.0000e+00 -1.0000e+00
<mgrwt>
<rscale>  0 0.91188000E+02</rscale>
<asrwt>0</asrwt>
<pdfrwt beam="1">  1        2 0.18460891E-01 0.91188000E+02</pdfrwt>
<pdfrwt beam="2">  1       -2 0.26652381E-02 0.91188000E+02</pdfrwt>
<totfact> 0.12981919E+05</totfact>
</mgrwt>
</event>
<event>
 3      1 +4.2044000e+04 9.11880000e+01 7.54677100e-03 1.30000000e-01
        1 -1    0    0  501    0 +0.0000000000e+00 +0.0000000000e+00 +1.3977200972e+02 1.3977200972e+02 0.0000000000e+00 0.0000e+00 -1.0000e+00
       -1 -1    0    0    0  501 -0.0000000000e+00 -0.0000000000e+00 -1.4872883635e+01 1.4872883635e+01 0.0000000000e+00 0.0000e+00 1.0000e+00
       23  1    1    2    0    0 +0.0000000000e+00 +0.0000000000e+00 +1.2489912609e+02 1.5464489336e+02 9.1188000000e+01 0.0000e+00 -1.0000e+00
<mgrwt>
<rscale>  0 0.91188000E+02</rscale>
<asrwt>0</asrwt>
<pdfrwt beam="1">  1        1 0.21503385E-01 0.91188000E+02</pdfrwt>
<pdfrwt beam="2">  1       -1 0.22881360E-02 0.91188000E+02</pdfrwt>
<totfact> 0.11066072E+05</totfact>
</mgrwt>
</event>
<event>
 3      1 +4.2044000e+04 9.11880000e+01 7.54677100e-03 1.30000000e-01
       -1 -1    0    0    0  501 -0.0000000000e+00 +0.0000000000e+00 +6.6842375423e+02 6.6842375423e+02 0.0000000000e+00 0.0000e+00 1.0000e+00
        1 -1    0    0  501    0 +0.0000000000e+00 -0.0000000000e+00 -3.1100223815e+00 3.1100223815e+00 0.0000000000e+00 0.0000e+00 -1.0000e+00
       23  1    1    2    0    0 +0.0000000000e+00 -0.0000000000e+00 +6.6531373185e+02 6.7153377661e+02 9.1188000000e+01 0.0000e+00 1.0000e+00
<mgrwt>
<rscale>  0 0.91188000E+02</rscale>
<asrwt>0</asrwt>
<pdfrwt beam="2">  1        1 0.47846551E-03 0.91188000E+02</pdfrwt>
<pdfrwt beam="1">  1       -1 0.10283431E+00 0.91188000E+02</pdfrwt>
<totfact> 0.38276657E+04</totfact>
</mgrwt>
</event>
<event>
 3      1 +4.2044000e+04 9.11880000e+01 7.54677100e-03 1.30000000e-01
        1 -1    0    0  501    0 +0.0000000000e+00 +0.0000000000e+00 +5.7180873559e+01 5.7180873559e+01 0.0000000000e+00 0.0000e+00 -1.0000e+00
       -1 -1    0    0    0  501 -0.0000000000e+00 -0.0000000000e+00 -3.6355038085e+01 3.6355038085e+01 0.0000000000e+00 0.0000e+00 1.0000e+00
       23  1    1    2    0    0 +0.0000000000e+00 +0.0000000000e+00 +2.0825835474e+01 9.3535911645e+01 9.1188000000e+01 0.0000e+00 -1.0000e+00
<mgrwt>
<rscale>  0 0.91188000E+02</rscale>
<asrwt>0</asrwt>
<pdfrwt beam="1">  1        1 0.87970575E-02 0.91188000E+02</pdfrwt>
<pdfrwt beam="2">  1       -1 0.55930828E-02 0.91188000E+02</pdfrwt>
<totfact> 0.95640850E+04</totfact>
</mgrwt>
</event>
<event>
 3      1 +4.2044000e+04 9.11880000e+01 7.54677100e-03 1.30000000e-01
        2 -1    0    0  501    0 +0.0000000000e+00 +0.0000000000e+00 +1.4258480818e+01 1.4258480818e+01 0.0000000000e+00 0.0000e+00 -1.0000e+00
       -2 -1    0    0    0  501 -0.0000000000e+00 -0.0000000000e+00 -1.4579483344e+02 1.4579483344e+02 0.0000000000e+00 0.0000e+00 1.0000e+00
       23  1    1    2    0    0 +0.0000000000e+00 +0.0000000000e+00 -1.3153635262e+02 1.6005331426e+02 9.1188000000e+01 0.0000e+00 -1.0000e+00
<mgrwt>
<rscale>  0 0.91188000E+02</rscale>
<asrwt>0</asrwt>
<pdfrwt beam="1">  1        2 0.21936126E-02 0.91188000E+02</pdfrwt>
<pdfrwt beam="2">  1       -2 0.22429973E-01 0.91188000E+02</pdfrwt>
<totfact> 0.70555898E+04</totfact>
</mgrwt>
</event>
<event>
 3      1 +4.2044000e+04 9.11880000e+01 7.54677100e-03 1.30000000e-01
       -4 -1    0    0    0  501 -0.0000000000e+00 +0.0000000000e+00 +4.1422914322e+02 4.1422914322e+02 0.0000000000e+00 0.0000e+00 -1.0000e+00
        4 -1    0    0  501    0 +0.0000000000e+00 -0.0000000000e+00 -5.0185093686e+00 5.0185093686e+00 0.0000000000e+00 0.0000e+00 1.0000e+00
       23  1    1    2    0    0 +0.0000000000e+00 -0.0000000000e+00 +4.0921063385e+02 4.1924765259e+02 9.1188000000e+01 0.0000e+00 -1.0000e+00
<mgrwt>
<rscale>  0 0.91188000E+02</rscale>
<asrwt>0</asrwt>
<pdfrwt beam="2">  1        4 0.77207869E-03 0.91188000E+02</pdfrwt>
<pdfrwt beam="1">  1       -4 0.63727534E-01 0.91188000E+02</pdfrwt>
<totfact> 0.14705766E+04</totfact>
</mgrwt>
</event>
<event>
 3      1 +4.2044000e+04 9.11880000e+01 7.54677100e-03 1.30000000e-01
        2 -1    0    0  501    0 +0.0000000000e+00 +0.0000000000e+00 +1.1755034418e+03 1.1755034418e+03 0.0000000000e+00 0.0000e+00 1.0000e+00
       -2 -1    0    0    0  501 -0.0000000000e+00 -0.0000000000e+00 -1.7684447038e+00 1.7684447038e+00 0.0000000000e+00 0.0000e+00 -1.0000e+00
       23  1    1    2    0    0 +0.0000000000e+00 +0.0000000000e+00 +1.1737349971e+03 1.1772718865e+03 9.1188000000e+01 0.0000e+00 1.0000e+00
<mgrwt>
<rscale>  0 0.91188000E+02</rscale>
<asrwt>0</asrwt>
<pdfrwt beam="1">  1        2 0.18084606E+00 0.91188000E+02</pdfrwt>
<pdfrwt beam="2">  1       -2 0.27206936E-03 0.91188000E+02</pdfrwt>
<totfact> 0.24911754E+05</totfact>
</mgrwt>
</event>
<event>
 3      1 +4.2044000e+04 9.11880000e+01 7.54677100e-03 1.30000000e-01
        2 -1    0    0  501    0 +0.0000000000e+00 +0.0000000000e+00 +1.5538664709e+01 1.5538664709e+01 0.0000000000e+00 0.0000e+00 -1.0000e+00
       -2 -1    0    0    0  501 -0.0000000000e+00 -0.0000000000e+00 -1.3378323523e+02 1.3378323523e+02 0.0000000000e+00 0.0000e+00 1.0000e+00
       23  1    1    2    0    0 +0.0000000000e+00 +0.0000000000e+00 -1.1824457052e+02 1.4932189994e+02 9.1188000000e+01 0.0000e+00 -1.0000e+00
<mgrwt>
<rscale>  0 0.91188000E+02</rscale>
<asrwt>0</asrwt>
<pdfrwt beam="1">  1        2 0.23905638E-02 0.91188000E+02</pdfrwt>
<pdfrwt beam="2">  1       -2 0.20582036E-01 0.91188000E+02</pdfrwt>
<totfact> 0.72712934E+04</totfact>
</mgrwt>
</event>
<event>
 3      1 +4.2044000e+04 9.11880000e+01 7.54677100e-03 1.30000000e-01
       -2 -1    0    0    0  501 -0.0000000000e+00 +0.0000000000e+00 +1.1810703172e+01 1.1810703172e+01 0.0000000000e+00 0.0000e+00 1.0000e+00
        2 -1    0    0  501    0 +0.0000000000e+00 -0.0000000000e+00 -1.7601092888e+02 1.7601092888e+02 0.0000000000e+00 0.0000e+00 -1.0000e+00
       23  1    1    2    0    0 +0.0000000000e+00 -0.0000000000e+00 -1.6420022571e+02 1.8782163205e+02 9.1188000000e+01 0.0000e+00 1.0000e+00
<mgrwt>
<rscale>  0 0.91188000E+02</rscale>
<asrwt>0</asrwt>
<pdfrwt beam="2">  1        2 0.27078605E-01 0.91188000E+02</pdfrwt>
<pdfrwt beam="1">  1       -2 0.18170313E-02 0.91188000E+02</pdfrwt>
<totfact> 0.14772045E+05</totfact>
</mgrwt>
</event>
<event>
 3      1 +4.2044000e+04 9.11880000e+01 7.54677100e-03 1.30000000e-01
        1 -1    0    0  501    0 +0.0000000000e+00 +0.0000000000e+00 +9.5167626332e+00 9.5167626332e+00 0.0000000000e+00 0.0000e+00 -1.0000e+00
       -1 -1    0    0    0  501 -0.0000000000e+00 -0.0000000000e+00 -2.1843697443e+02 2.1843697443e+02 0.0000000000e+00 0.0000e+00 1.0000e+00
       23  1    1    2    0    0 +0.0000000000e+00 +0.0000000000e+00 -2.0892021180e+02 2.2795373707e+02 9.1188000000e+01 0.0000e+00 -1.0000e+00
<mgrwt>
<rscale>  0 0.91188000E+02</rscale>
<asrwt>0</asrwt>
<pdfrwt beam="1">  1        1 0.14641173E-02 0.91188000E+02</pdfrwt>
<pdfrwt beam="2">  1       -1 0.33605689E-01 0.91188000E+02</pdfrwt>
<totfact> 0.67617085E+04</totfact>
</mgrwt>
</event>
<event>
 3      1 +4.2044000e+04 9.11880000e+01 7.54677100e-03 1.30000000e-01
        2 -1    0    0  501    0 +0.0000000000e+00 +0.0000000000e+00 +4.9089288319e+01 4.9089288319e+01 0.0000000000e+00 0.0000e+00 -1.0000e+00
       -2 -1    0    0    0  501 -0.0000000000e+00 -0.0000000000e+00 -4.2347585537e+01 4.2347585537e+01 0.0000000000e+00 0.0000e+00 1.0000e+00
       23  1    1    2    0    0 +0.0000000000e+00 +0.0000000000e+00 +6.7417027819e+00 9.1436873855e+01 9.1188000000e+01 0.0000e+00 -1.0000e+00
<mgrwt>
<rscale>  0 0.91188000E+02</rscale>
<asrwt>0</asrwt>
<pdfrwt beam="1">  1        2 0.75521982E-02 0.91188000E+02</pdfrwt>
<pdfrwt beam="2">  1       -2 0.65150132E-02 0.91188000E+02</pdfrwt>
<totfact> 0.10055770E+05</totfact>
</mgrwt>
</event>
<event>
 3      1 +4.2044000e+04 9.11880000e+01 7.54677100e-03 1.30000000e-01
       -3 -1    0    0    0  501 -0.0000000000e+00 +0.0000000000e+00 +3.1483164767e+00 3.1483164767e+00 0.0000000000e+00 0.0000e+00 1.0000e+00
        3 -1    0    0  501    0 +0.0000000000e+00 -0.0000000000e+00 -6.6029347793e+02 6.6029347793e+02 0.0000000000e+00 0.0000e+00 -1.0000e+00
       23  1    1    2    0    0 +0.0000000000e+00 -0.0000000000e+00 -6.5714516145e+02 6.6344179441e+02 9.1188000000e+01 0.0000e+00 1.0000e+00
<mgrwt>
<rscale>  0 0.91188000E+02</rscale>
<asrwt>0</asrwt>
<pdfrwt beam="2">  1        3 0.10158356E+00 0.91188000E+02</pdfrwt>
<pdfrwt beam="1">  1       -3 0.48435661E-03 0.91188000E+02</pdfrwt>
<totfact> 0.14539671E+04</totfact>
</mgrwt>
</event>
<event>
 3      1 +4.2044000e+04 9.11880000e+01 7.54677100e-03 1.30000000e-01
        2 -1    0    0  501    0 +0.0000000000e+00 +0.0000000000e+00 +2.1176524655e+03 2.1176524655e+03 0.0000000000e+00 0.0000e+00 -1.0000e+00
       -2 -1    0    0    0  501 -0.0000000000e+00 -0.0000000000e+00 -9.8165911068e-01 9.8165911068e-01 0.0000000000e+00 0.0000e+00 1.0000e+00
       23  1    1    2    0    0 +0.0000000000e+00 +0.0000000000e+00 +2.1166708064e+03 2.1186341246e+03 9.1188000000e+01 0.0000e+00 -1.0000e+00
<mgrwt>
<rscale>  0 0.91188000E+02</rscale>
<asrwt>0</asrwt>
<pdfrwt beam="1">  1        2 0.32578903E+00 0.91188000E+02</pdfrwt>
<pdfrwt beam="2">  1       -2 0.15102617E-03 0.91188000E+02</pdfrwt>
<totfact> 0.18573452E+05</totfact>
</mgrwt>
</event>
<event>
 3      1 +4.2044000e+04 9.11880000e+01 7.54677100e-03 1.30000000e-01
        1 -1    0    0  501    0 +0.0000000000e+00 +0.0000000000e+00 +4.0140367166e+00 4.0140367166e+00 0.0000000000e+00 0.0000e+00 -1.0000e+00
       -1 -1    0    0    0  501 -0.0000000000e+00 -0.0000000000e+00 -5.1788585476e+02 5.1788585476e+02 0.0000000000e+00 0.0000e+00 1.0000e+00
       23  1    1    2    0    0 +0.0000000000e+00 +0.0000000000e+00 -5.1387181805e+02 5.2189989148e+02 9.1188000000e+01 0.0000e+00 -1.0000e+00
<mgrwt>
<rscale>  0 0.91188000E+02</rscale>
<asrwt>0</asrwt>
<pdfrwt beam="1">  1        1 0.61754441E-03 0.91188000E+02</pdfrwt>
<pdfrwt beam="2">  1       -1 0.79674708E-01 0.91188000E+02</pdfrwt>
<totfact> 0.46002515E+04</totfact>
</mgrwt>
</event>
<event>
 3      1 +4.2044000e+04 9.11880000e+01 7.54677100e-03 1.30000000e-01
       -2 -1    0    0    0  501 -0.0000000000e+00 +0.0000000000e+00 +1.8218785165e+00 1.8218785165e+00 0.0000000000e+00 0.0000e+00 1.0000e+00
        2 -1    0    0  501    0 +0.0000000000e+00 -0.0000000000e+00 -1.1410271416e+03 1.1410271416e+03 0.0000000000e+00 0.0000e+00 -1.0000e+00
       23  1    1    2    0    0 +0.0000000000e+00 -0.0000000000e+00 -1.1392052631e+03 1.1428490201e+03 9.1188000000e+01 0.0000e+00 1.0000e+00
<mgrwt>
<rscale>  0 0.91188000E+02</rscale>
<asrwt>0</asrwt>
<pdfrwt beam="2">  1        2 0.17554258E+00 0.91188000E+02</pdfrwt>
<pdfrwt beam="1">  1       -2 0.28028909E-03 0.91188000E+02</pdfrwt>
<totfact> 0.24968332E+05</totfact>
</mgrwt>
</event>
<event>
 3      1 +4.2044000e+04 9.11880000e+01 7.54677100e-03 1.30000000e-01
       -1 -1    0    0    0  501 -0.0000000000e+00 +0.0000000000e+00 +2.3721630464e+00 2.3721630464e+00 0.0000000000e+00 0.0000e+00 1.0000e+00
        1 -1    0    0  501    0 +0.0000000000e+00 -0.0000000000e+00 -8.7633640493e+02 8.7633640493e+02 0.0000000000e+00 0.0000e+00 -1.0000e+00
       23  1    1    2    0    0 +0.0000000000e+00 -0.0000000000e+00 -8.7396424188e+02 8.7870856797e+02 9.1188000000e+01 0.0000e+00 1.0000e+00
<mgrwt>
<rscale>  0 0.91188000E+02</rscale>
<asrwt>0</asrwt>
<pdfrwt beam="2">  1        1 0.13482096E+00 0.91188000E+02</pdfrwt>
<pdfrwt beam="1">  1       -1 0.36494822E-03 0.91188000E+02</pdfrwt>
<totfact> 0.13973414E+05</totfact>
</mgrwt>
</event>
<event>
 3      1 +4.2044000e+04 9.11880000e+01 7.54677100e-03 1.30000000e-01
        1 -1    0    0  501    0 +0.0000000000e+00 +0.0000000000e+00 +2.8269499096e+01 2.8269499096e+01 0.0000000000e+00 0.0000e+00 -1.0000e+00
       -1 -1    0    0    0  501 -0.0000000000e+00 -0.0000000000e+00 -7.3535538389e+01 7.3535538389e+01 0.0000000000e+00 0.0000e+00 1.0000e+00
       23  1    1    2    0    0 +0.0000000000e+00 +0.0000000000e+00 -4.5266039293e+01 1.0180503748e+02 9.1188000000e+01 0.0000e+00 -1.0000e+00
<mgrwt>
<rscale>  0 0.91188000E+02</rscale>
<asrwt>0</asrwt>
<pdfrwt beam="1">  1        1 0.43491537E-02 0.91188000E+02</pdfrwt>
<pdfrwt beam="2">  1       -1 0.11313160E-01 0.91188000E+02</pdfrwt>
<totfact> 0.85820369E+04</totfact>
</mgrwt>
</event>
<event>
 3      1 +4.2044000e+04 9.11880000e+01 7.54677100e-03 1.30000000e-01
       -1 -1    0    0    0  501 -0.0000000000e+00 +0.0000000000e+00 +8.1687904193e+01 8.1687904193e+01 0.0000000000e+00 0.0000e+00 1.0000e+00
        1 -1    0    0  501    0 +0.0000000000e+00 -0.0000000000e+00 -2.5448233206e+01 2.5448233206e+01 0.0000000000e+00 0.0000e+00 -1.0000e+00
       23  1    1    2    0    0 +0.0000000000e+00 -0.0000000000e+00 +5.6239670987e+01 1.0713613740e+02 9.1188000000e+01 0.0000e+00 1.0000e+00
<mgrwt>
<rscale>  0 0.91188000E+02</rscale>
<asrwt>0</asrwt>
<pdfrwt beam="2">  1        1 0.39151128E-02 0.91188000E+02</pdfrwt>
<pdfrwt beam="1">  1       -1 0.12567370E-01 0.91188000E+02</pdfrwt>
<totfact> 0.84324686E+04</totfact>
</mgrwt>
</event>
<event>
 3      1 +4.2044000e+04 9.11880000e+01 7.54677100e-03 1.30000000e-01
       -2 -1    0    0    0  501 -0.0000000000e+00 +0.0000000000e+00 +9.2862452058e+00 9.2862452058e+00 0.0000000000e+00 0.0000e+00 1.0000e+00
        2 -1    0    0  501    0 +0.0000000000e+00 -0.0000000000e+00 -2.2385935219e+02 2.2385935219e+02 0.0000000000e+00 0.0000e+00 -1.0000e+00
       23  1    1    2    0    0 +0.0000000000e+00 -0.0000000000e+00 -2.1457310698e+02 2.3314559739e+02 9.1188000000e+01 0.0000e+00 1.0000e+00
<mgrwt>
<rscale>  0 0.91188000E+02</rscale>
<asrwt>0</asrwt>
<pdfrwt beam="2">  1        2 0.34439900E-01 0.91188000E+02</pdfrwt>
<pdfrwt beam="1">  1       -2 0.14286531E-02 0.91188000E+02</pdfrwt>
<totfact> 0.16111128E+05</totfact>
</mgrwt>
</event>
<event>
 3      1 +4.2044000e+04 9.11880000e+01 7.54677100e-03 1.30000000e-01
        3 -1    0    0  501    0 +0.0000000000e+00 +0.0000000000e+00 +1.5183658150e+02 1.5183658150e+02 0.0000000000e+00 0.0000e+00 -1.0000e+00
       -3 -1    0    0    0  501 -0.0000000000e+00 -0.0000000000e+00 -1.3691119857e+01 1.3691119857e+01 0.0000000000e+00 0.0000e+00 1.0000e+00
       23  1    1    2    0    0 +0.0000000000e+00 +0.0000000000e+00 +1.3814546164e+02 1.6552770136e+02 9.1188000000e+01 0.0000e+00 -1.0000e+00
<mgrwt>
<rscale>  0 0.91188000E+02</rscale>
<asrwt>0</asrwt>
<pdfrwt beam="1">  1        3 0.23359473E-01 0.91188000E+02</pdfrwt>
<pdfrwt beam="2">  1       -3 0.21063262E-02 0.91188000E+02</pdfrwt>
<totfact> 0.30373220E+04</totfact>
</mgrwt>
</event>
<event>
 3      1 +4.2044000e+04 9.11880000e+01 7.54677100e-03 1.30000000e-01
       -2 -1    0    0    0  501 -0.0000000000e+00 +0.0000000000e+00 +3.9951168311e+00 3.9951168311e+00 0.0000000000e+00 0.0000e+00 1.0000e+00
        2 -1    0    0  501    0 +0.0000000000e+00 -0.0000000000e+00 -5.2033843411e+02 5.2033843411e+02 0.0000000000e+00 0.0000e+00 -1.0000e+00
       23  1    1    2    0    0 +0.0000000000e+00 -0.0000000000e+00 -5.1634331728e+02 5.2433355094e+02 9.1188000000e+01 0.0000e+00 1.0000e+00
<mgrwt>
<rscale>  0 0.91188000E+02</rscale>
<asrwt>0</asrwt>
<pdfrwt beam="2">  1        2 0.80051992E-01 0.91188000E+02</pdfrwt>
<pdfrwt beam="1">  1       -2 0.61463393E-03 0.91188000E+02</pdfrwt>
<totfact> 0.21820251E+05</totfact>
</mgrwt>
</event>
<event>
 3      1 +4.2044000e+04 9.11880000e+01 7.54677100e-03 1.30000000e-01
        1 -1    0    0  501    0 +0.0000000000e+00 +0.0000000000e+00 +3.6903331654e+01 3.6903331654e+01 0.0000000000e+00 0.0000e+00 -1.0000e+00
       -1 -1    0    0    0  501 -0.0000000000e+00 -0.0000000000e+00 -5.6331305137e+01 5.6331305137e+01 0.0000000000e+00 0.0000e+00 1.0000e+00
       23  1    1    2    0    0 +0.0000000000e+00 +0.0000000000e+00 -1.9427973483e+01 9.3234636792e+01 9.1188000000e+01 0.0000e+00 -1.0000e+00
<mgrwt>
<rscale>  0 0.91188000E+02</rscale>
<asrwt>0</asrwt>
<pdfrwt beam="1">  1        1 0.56774357E-02 0.91188000E+02</pdfrwt>
<pdfrwt beam="2">  1       -1 0.86663546E-02 0.91188000E+02</pdfrwt>
<totfact> 0.89522875E+04</totfact>
</mgrwt>
</event>
<event>
 3      1 +4.2044000e+04 9.11880000e+01 7.54677100e-03 1.30000000e-01
       -1 -1    0    0    0  501 -0.0000000000e+00 +0.0000000000e+00 +3.1579989753e+02 3.1579989753e+02 0.0000000000e+00 0.0000e+00 1.0000e+00
        1 -1    0    0  501    0 +0.0000000000e+00 -0.0000000000e+00 -6.5826900271e+00 6.5826900271e+00 0.0000000000e+00 0.0000e+00 -1.0000e+00
       23  1    1    2    0    0 +0.0000000000e+00 -0.0000000000e+00 +3.0921720750e+02 3.2238258755e+02 9.1188000000e+01 0.0000e+00 1.0000e+00
<mgrwt>
<rscale>  0 0.91188000E+02</rscale>
<asrwt>0</asrwt>
<pdfrwt beam="2">  1        1 0.10127218E-02 0.91188000E+02</pdfrwt>
<pdfrwt beam="1">  1       -1 0.48584588E-01 0.91188000E+02</pdfrwt>
<totfact> 0.59329581E+04</totfact>
</mgrwt>
</event>
<event>
 3      1 +4.2044000e+04 9.11880000e+01 7.54677100e-03 1.30000000e-01
        3 -1    0    0  501    0 +0.0000000000e+00 +0.0000000000e+00 +3.8106002471e+02 3.8106002471e+02 0.0000000000e+00 0.0000e+00 -1.0000e+00
       -3 -1    0    0    0  501 -0.0000000000e+00 -0.0000000000e+00 -5.4553422065e+00 5.4553422065e+00 0.0000000000e+00 0.0000e+00 1.0000e+00
       23  1    1    2    0    0 +0.0000000000e+00 +0.0000000000e+00 +3.7560468250e+02 3.8651536691e+02 9.1188000000e+01 0.0000e+00 -1.0000e+00
<mgrwt>
<rscale>  0 0.91188000E+02</rscale>
<asrwt>0</asrwt>
<pdfrwt beam="1">  1        3 0.58624598E-01 0.91188000E+02</pdfrwt>
<pdfrwt beam="2">  1       -3 0.83928372E-03 0.91188000E+02</pdfrwt>
<totfact> 0.21021410E+04</totfact>
</mgrwt>
</event>
<event>
 3      1 +4.2044000e+04 9.11880000e+01 7.54677100e-03 1.30000000e-01
       -1 -1    0    0    0  501 -0.0000000000e+00 +0.0000000000e+00 +6.4519026304e+00 6.4519026304e+00 0.0000000000e+00 0.0000e+00 1.0000e+00
        1 -1    0    0  501    0 +0.0000000000e+00 -0.0000000000e+00 -3.2220152025e+02 3.2220152025e+02 0.0000000000e+00 0.0000e+00 -1.0000e+00
       23  1    1    2    0    0 +0.0000000000e+00 -0.0000000000e+00 -3.1574961762e+02 3.2865342288e+02 9.1188000000e+01 0.0000e+00 1.0000e+00
<mgrwt>
<rscale>  0 0.91188000E+02</rscale>
<asrwt>0</asrwt>
<pdfrwt beam="2">  1        1 0.49569453E-01 0.91188000E+02</pdfrwt>
<pdfrwt beam="1">  1       -1 0.99260063E-03 0.91188000E+02</pdfrwt>
<totfact> 0.12981473E+05</totfact>
</mgrwt>
</event>
<event>
 3      1 +4.2044000e+04 9.11880000e+01 7.54677100e-03 1.30000000e-01
       -1 -1    0    0    0  501 -0.0000000000e+00 +0.0000000000e+00 +1.1651715688e+03 1.1651715688e+03 0.0000000000e+00 0.0000e+00 1.0000e+00
        1 -1    0    0  501    0 +0.0000000000e+00 -0.0000000000e+00 -1.7841259534e+00 1.7841259534e+00 0.0000000000e+00 0.0000e+00 -1.0000e+00
       23  1    1    2    0    0 +0.0000000000e+00 -0.0000000000e+00 +1.1633874428e+03 1.1669556947e+03 9.1188000000e+01 0.0000e+00 1.0000e+00
<mgrwt>
<rscale>  0 0.91188000E+02</rscale>
<asrwt>0</asrwt>
<pdfrwt beam="2">  1        1 0.27448185E-03 0.91188000E+02</pdfrwt>
<pdfrwt beam="1">  1       -1 0.17925656E+00 0.91188000E+02</pdfrwt>
<totfact> 0.20966657E+04</totfact>
</mgrwt>
</event>
<event>
 3      1 +4.2044000e+04 9.11880000e+01 7.54677100e-03 1.30000000e-01
       -2 -1    0    0    0  501 -0.0000000000e+00 +0.0000000000e+00 +3.7298640546e+00 3.7298640546e+00 0.0000000000e+00 0.0000e+00 1.0000e+00
        2 -1    0    0  501    0 +0.0000000000e+00 -0.0000000000e+00 -5.5734278933e+02 5.5734278933e+02 0.0000000000e+00 0.0000e+00 -1.0000e+00
       23  1    1    2    0    0 +0.0000000000e+00 -0.0000000000e+00 -5.5361292528e+02 5.6107265339e+02 9.1188000000e+01 0.0000e+00 1.0000e+00
<mgrwt>
<rscale>  0 0.91188000E+02</rscale>
<asrwt>0</asrwt>
<pdfrwt beam="2">  1        2 0.85745043E-01 0.91188000E+02</pdfrwt>
<pdfrwt beam="1">  1       -2 0.57382525E-03 0.91188000E+02</pdfrwt>
<totfact> 0.22290151E+05</totfact>
</mgrwt>
</event>
<event>
 3      1 +4.2044000e+04 9.11880000e+01 7.54677100e-03 1.30000000e-01
       -4 -1    0    0    0  501 -0.0000000000e+00 +0.0000000000e+00 +1.5050863338e+02 1.5050863338e+02 0.0000000000e+00 0.0000e+00 1.0000e+00
        4 -1    0    0  501    0 +0.0000000000e+00 -0.0000000000e+00 -1.3811917558e+01 1.3811917558e+01 0.0000000000e+00 0.0000e+00 -1.0000e+00
       23  1    1    2    0    0 +0.0000000000e+00 -0.0000000000e+00 +1.3669671582e+02 1.6432055094e+02 9.1188000000e+01 0.0000e+00 1.0000e+00
<mgrwt>
<rscale>  0 0.91188000E+02</rscale>
<asrwt>0</asrwt>
<pdfrwt beam="2">  1        4 0.21249105E-02 0.91188000E+02</pdfrwt>
<pdfrwt beam="1">  1       -4 0.23155173E-01 0.91188000E+02</pdfrwt>
<totfact> 0.22966673E+04</totfact>
</mgrwt>
</event>
<event>
 3      1 +4.2044000e+04 9.11880000e+01 7.54677100e-03 1.30000000e-01
        1 -1    0    0  501    0 +0.0000000000e+00 +0.0000000000e+00 +1.7625603459e+03 1.7625603459e+03 0.0000000000e+00 0.0000e+00 -1.0000e+00
       -1 -1    0    0    0  501 -0.0000000000e+00 -0.0000000000e+00 -1.1794278935e+00 1.1794278935e+00 0.0000000000e+00 0.0000e+00 1.0000e+00
       23  1    1    2    0    0 +0.0000000000e+00 +0.0000000000e+00 +1.7613809180e+03 1.7637397738e+03 9.1188000000e+01 0.0000e+00 -1.0000e+00
<mgrwt>
<rscale>  0 0.91188000E+02</rscale>
<asrwt>0</asrwt>
<pdfrwt beam="1">  1        1 0.27116102E+00 0.91188000E+02</pdfrwt>
<pdfrwt beam="2">  1       -1 0.18145186E-03 0.91188000E+02</pdfrwt>
<totfact> 0.94274681E+04</totfact>
</mgrwt>
</event>
<event>
 3      1 +4.2044000e+04 9.11880000e+01 7.54677100e-03 1.30000000e-01
        1 -1    0    0  501    0 +0.0000000000e+00 +0.0000000000e+00 +1.2197634743e+03 1.2197634743e+03 0.0000000000e+00 0.0000e+00 -1.0000e+00
       -1 -1    0    0    0  501 -0.0000000000e+00 -0.0000000000e+00 -1.7042753614e+00 1.7042753614e+00 0.0000000000e+00 0.0000e+00 1.0000e+00
       23  1    1    2    0    0 +0.0000000000e+00 +0.0000000000e+00 +1.2180591990e+03 1.2214677497e+03 9.1188000000e+01 0.0000e+00 -1.0000e+00
<mgrwt>
<rscale>  0 0.91188000E+02</rscale>
<asrwt>0</asrwt>
<pdfrwt beam="1">  1        1 0.18765522E+00 0.91188000E+02</pdfrwt>
<pdfrwt beam="2">  1       -1 0.26219718E-03 0.91188000E+02</pdfrwt>
<totfact> 0.12626468E+05</totfact>
</mgrwt>
</event>
<event>
 3      1 +4.2044000e+04 9.11880000e+01 7.54677100e-03 1.30000000e-01
        2 -1    0    0  501    0 +0.0000000000e+00 +0.0000000000e+00 +6.9502886487e+02 6.9502886487e+02 0.0000000000e+00 0.0000e+00 -1.0000e+00
       -2 -1    0    0    0  501 -0.0000000000e+00 -0.0000000000e+00 -2.9909733841e+00 2.9909733841e+00 0.0000000000e+00 0.0000e+00 1.0000e+00
       23  1    1    2    0    0 +0.0000000000e+00 +0.0000000000e+00 +6.9203789148e+02 6.9801983825e+02 9.1188000000e+01 0.0000e+00 -1.0000e+00
<mgrwt>
<rscale>  0 0.91188000E+02</rscale>
<asrwt>0</asrwt>
<pdfrwt beam="1">  1        2 0.10692739E+00 0.91188000E+02</pdfrwt>
<pdfrwt beam="2">  1       -2 0.46015030E-03 0.91188000E+02</pdfrwt>
<totfact> 0.23667116E+05</totfact>
</mgrwt>
</event>
<event>
 3      1 +4.2044000e+04 9.11880000e+01 7.54677100e-03 1.30000000e-01
       -3 -1    0    0    0  501 -0.0000000000e+00 +0.0000000000e+00 +3.5222994514e+02 3.5222994514e+02 0.0000000000e+00 0.0000e+00 1.0000e+00
        3 -1    0    0  501    0 +0.0000000000e+00 -0.0000000000e+00 -5.9018628731e+00 5.9018628731e+00 0.0000000000e+00 0.0000e+00 -1.0000e+00
       23  1    1    2    0    0 +0.0000000000e+00 -0.0000000000e+00 +3.4632808226e+02 3.5813180801e+02 9.1188000000e+01 0.0000e+00 1.0000e+00
<mgrwt>
<rscale>  0 0.91188000E+02</rscale>
<asrwt>0</asrwt>
<pdfrwt beam="2">  1        3 0.90797918E-03 0.91188000E+02</pdfrwt>
<pdfrwt beam="1">  1       -3 0.54189206E-01 0.91188000E+02</pdfrwt>
<totfact> 0.21924359E+04</totfact>
</mgrwt>
</event>
<event>
 3      1 +4.2044000e+04 9.11880000e+01 7.54677100e-03 1.30000000e-01
        2 -1    0    0  501    0 +0.0000000000e+00 +0.0000000000e+00 +2.7164129983e+03 2.7164129983e+03 0.0000000000e+00 0.0000e+00 1.0000e+00
       -2 -1    0    0    0  501 -0.0000000000e+00 -0.0000000000e+00 -7.6527863668e-01 7.6527863668e-01 0.0000000000e+00 0.0000e+00 -1.0000e+00
       23  1    1    2    0    0 +0.0000000000e+00 +0.0000000000e+00 +2.7156477197e+03 2.7171782769e+03 9.1188000000e+01 0.0000e+00 1.0000e+00
<mgrwt>
<rscale>  0 0.91188000E+02</rscale>
<asrwt>0</asrwt>
<pdfrwt beam="1">  1        2 0.41790197E+00 0.91188000E+02</pdfrwt>
<pdfrwt beam="2">  1       -2 0.11773735E-03 0.91188000E+02</pdfrwt>
<totfact> 0.12767038E+05</totfact>
</mgrwt>
</event>
<event>
 3      1 +4.2044000e+04 9.11880000e+01 7.54677100e-03 1.30000000e-01
        1 -1    0    0  501    0 +0.0000000000e+00 +0.0000000000e+00 +3.5924313151e+02 3.5924313151e+02 0.0000000000e+00 0.0000e+00 -1.0000e+00
       -1 -1    0    0    0  501 -0.0000000000e+00 -0.0000000000e+00 -5.7866460168e+00 5.7866460168e+00 0.0000000000e+00 0.0000e+00 1.0000e+00
       23  1    1    2    0    0 +0.0000000000e+00 +0.0000000000e+00 +3.5345648549e+02 3.6502977753e+02 9.1188000000e+01 0.0000e+00 -1.0000e+00
<mgrwt>
<rscale>  0 0.91188000E+02</rscale>
<asrwt>0</asrwt>
<pdfrwt beam="1">  1        1 0.55268157E-01 0.91188000E+02</pdfrwt>
<pdfrwt beam="2">  1       -1 0.89025352E-03 0.91188000E+02</pdfrwt>
<totfact> 0.13239978E+05</totfact>
</mgrwt>
</event>
<event>
 3      1 +4.2044000e+04 9.11880000e+01 7.54677100e-03 1.30000000e-01
        2 -1    0    0  501    0 +0.0000000000e+00 +0.0000000000e+00 +3.2135768139e+01 3.2135768139e+01 0.0000000000e+00 0.0000e+00 -1.0000e+00
       -2 -1    0    0    0  501 -0.0000000000e+00 -0.0000000000e+00 -6.4688443949e+01 6.4688443949e+01 0.0000000000e+00 0.0000e+00 1.0000e+00
       23  1    1    2    0    0 +0.0000000000e+00 +0.0000000000e+00 -3.2552675811e+01 9.6824212088e+01 9.1188000000e+01 0.0000e+00 -1.0000e+00
<mgrwt>
<rscale>  0 0.91188000E+02</rscale>
<asrwt>0</asrwt>
<pdfrwt beam="1">  1        2 0.49439644E-02 0.91188000E+02</pdfrwt>
<pdfrwt beam="2">  1       -2 0.99520681E-02 0.91188000E+02</pdfrwt>
<totfact> 0.90063131E+04</totfact>
</mgrwt>
</event>
<event>
 3      1 +4.2044000e+04 9.11880000e+01 7.54677100e-03 1.30000000e-01
       -4 -1    0    0    0  501 -0.0000000000e+00 +0.0000000000e+00 +2.7816242287e+02 2.7816242287e+02 0.0000000000e+00 0.0000e+00 1.0000e+00
        4 -1    0    0  501    0 +0.0000000000e+00 -0.0000000000e+00 -7.4733776567e+00 7.4733776567e+00 0.0000000000e+00 0.0000e+00 -1.0000e+00
       23  1    1    2    0    0 +0.0000000000e+00 -0.0000000000e+00 +2.7068904521e+02 2.8563580053e+02 9.1188000000e+01 0.0000e+00 1.0000e+00
<mgrwt>
<rscale>  0 0.91188000E+02</rscale>
<asrwt>0</asrwt>
<pdfrwt beam="2">  1        4 0.11497506E-02 0.91188000E+02</pdfrwt>
<pdfrwt beam="1">  1       -4 0.42794211E-01 0.91188000E+02</pdfrwt>
<totfact> 0.18261623E+04</totfact>
</mgrwt>
</event>
<event>
 3      1 +4.2044000e+04 9.11880000e+01 7.54677100e-03 1.30000000e-01
       -1 -1    0    0    0  501 -0.0000000000e+00 +0.0000000000e+00 +1.2971721717e+00 1.2971721717e+00 0.0000000000e+00 0.0000e+00 1.0000e+00
        1 -1    0    0  501    0 +0.0000000000e+00 -0.0000000000e+00 -1.6025727975e+03 1.6025727975e+03 0.0000000000e+00 0.0000e+00 -1.0000e+00
       23  1    1    2    0    0 +0.0000000000e+00 -0.0000000000e+00 -1.6012756253e+03 1.6038699696e+03 9.1188000000e+01 0.0000e+00 1.0000e+00
<mgrwt>
<rscale>  0 0.91188000E+02</rscale>
<asrwt>0</asrwt>
<pdfrwt beam="2">  1        1 0.24655006E+00 0.91188000E+02</pdfrwt>
<pdfrwt beam="1">  1       -1 0.19956463E-03 0.91188000E+02</pdfrwt>
<totfact> 0.10420916E+05</totfact>
</mgrwt>
</event>
<event>
 3      1 +4.2044000e+04 9.11880000e+01 7.54677100e-03 1.30000000e-01
        1 -1    0    0  501    0 +0.0000000000e+00 +0.0000000000e+00 +4.5243539099e+02 4.5243539099e+02 0.0000000000e+00 0.0000e+00 -1.0000e+00
       -1 -1    0    0    0  501 -0.0000000000e+00 -0.0000000000e+00 -4.5947175605e+00 4.5947175605e+00 0.0000000000e+00 0.0000e+00 1.0000e+00
       23  1    1    2    0    0 +0.0000000000e+00 +0.0000000000e+00 +4.4784067343e+02 4.5703010855e+02 9.1188000000e+01 0.0000e+00 -1.0000e+00
<mgrwt>
<rscale>  0 0.91188000E+02</rscale>
<asrwt>0</asrwt>
<pdfrwt beam="1">  1        1 0.69605410E-01 0.91188000E+02</pdfrwt>
<pdfrwt beam="2">  1       -1 0.70687998E-03 0.91188000E+02</pdfrwt>
<totfact> 0.13741826E+05</totfact>
</mgrwt>
</event>
<event>
 3      1 +4.2044000e+04 9.11880000e+01 7.54677100e-03 1.30000000e-01
       -1 -1    0    0    0  501 -0.0000000000e+00 +0.0000000000e+00 +2.0709642744e+02 2.0709642744e+02 0.0000000000e+00 0.0000e+00 1.0000e+00
        1 -1    0    0  501    0 +0.0000000000e+00 -0.0000000000e+00 -1.0037898102e+01 1.0037898102e+01 0.0000000000e+00 0.0000e+00 -1.0000e+00
       23  1    1    2    0    0 +0.0000000000e+00 -0.0000000000e+00 +1.9705852934e+02 2.1713432555e+02 9.1188000000e+01 0.0000e+00 1.0000e+00
<mgrwt>
<rscale>  0 0.91188000E+02</rscale>
<asrwt>0</asrwt>
<pdfrwt beam="2">  1        1 0.15442922E-02 0.91188000E+02</pdfrwt>
<pdfrwt beam="1">  1       -1 0.31860986E-01 0.91188000E+02</pdfrwt>
<totfact> 0.68704821E+04</totfact>
</mgrwt>
</event>
<event>
 3      1 +4.2044000e+04 9.11880000e+01 7.54677100e-03 1.30000000e-01
        1 -1    0    0  501    0 +0.0000000000e+00 +0.0000000000e+00 +1.1907683572e+03 1.1907683572e+03 0.0000000000e+00 0.0000e+00 -1.0000e+00
       -1 -1    0    0    0  501 -0.0000000000e+00 -0.0000000000e+00 -1.7457743343e+00 1.7457743343e+00 0.0000000000e+00 0.0000e+00 1.0000e+00
       23  1    1    2    0    0 +0.0000000000e+00 +0.0000000000e+00 +1.1890225828e+03 1.1925141315e+03 9.1188000000e+01 0.0000e+00 -1.0000e+00
<mgrwt>
<rscale>  0 0.91188000E+02</rscale>
<asrwt>0</asrwt>
<pdfrwt beam="1">  1        1 0.18319448E+00 0.91188000E+02</pdfrwt>
<pdfrwt beam="2">  1       -1 0.26858162E-03 0.91188000E+02</pdfrwt>
<totfact> 0.12771903E+05</totfact>
</mgrwt>
</event>
<event>
 3      1 +4.2044000e+04 9.11880000e+01 7.54677100e-03 1.30000000e-01
       -1 -1    0    0    0  501 -0.0000000000e+00 +0.0000000000e+00 +2.6279176942e+00 2.6279176942e+00 0.0000000000e+00 0.0000e+00 1.0000e+00
        1 -1    0    0  501    0 +0.0000000000e+00 -0.0000000000e+00 -7.9104944595e+02 7.9104944595e+02 0.0000000000e+00 0.0000e+00 -1.0000e+00
       23  1    1    2    0    0 +0.0000000000e+00 -0.0000000000e+00 -7.8842152826e+02 7.9367736365e+02 9.1188000000e+01 0.0000e+00 1.0000e+00
<mgrwt>
<rscale>  0 0.91188000E+02</rscale>
<asrwt>0</asrwt>
<pdfrwt beam="2">  1        1 0.12169988E+00 0.91188000E+02</pdfrwt>
<pdfrwt beam="1">  1       -1 0.40429514E-03 0.91188000E+02</pdfrwt>
<totfact> 0.14138594E+05</totfact>
</mgrwt>
</event>
<event>
 3      1 +4.2044000e+04 9.11880000e+01 7.54677100e-03 1.30000000e-01
       -2 -1    0    0    0  501 -0.0000000000e+00 +0.0000000000e+00 +7.7531478374e-01 7.7531478374e-01 0.0000000000e+00 0.0000e+00 1.0000e+00
        2 -1    0    0  501    0 +0.0000000000e+00 -0.0000000000e+00 -2.6812500930e+03 2.6812500930e+03 0.0000000000e+00 0.0000e+00 -1.0000e+00
       23  1    1    2    0    0 +0.0000000000e+00 -0.0000000000e+00 -2.6804747782e+03 2.6820254078e+03 9.1188000000e+01 0.0000e+00 1.0000e+00
<mgrwt>
<rscale>  0 0.91188000E+02</rscale>
<asrwt>0</asrwt>
<pdfrwt beam="2">  1        2 0.41249205E+00 0.91188000E+02</pdfrwt>
<pdfrwt beam="1">  1       -2 0.11928150E-03 0.91188000E+02</pdfrwt>
<totfact> 0.13100437E+05</totfact>
</mgrwt>
</event>
<event>
 3      1 +4.2044000e+04 9.11880000e+01 7.54677100e-03 1.30000000e-01
       -1 -1    0    0    0  501 -0.0000000000e+00 +0.0000000000e+00 +2.1191330870e+02 2.1191330870e+02 0.0000000000e+00 0.0000e+00 1.0000e+00
        1 -1    0    0  501    0 +0.0000000000e+00 -0.0000000000e+00 -9.8097323323e+00 9.8097323323e+00 0.0000000000e+00 0.0000e+00 -1.0000e+00
       23  1    1    2    0    0 +0.0000000000e+00 -0.0000000000e+00 +2.0210357637e+02 2.2172304103e+02 9.1188000000e+01 0.0000e+00 1.0000e+00
<mgrwt>
<rscale>  0 0.91188000E+02</rscale>
<asrwt>0</asrwt>
<pdfrwt beam="2">  1        1 0.15091897E-02 0.91188000E+02</pdfrwt>
<pdfrwt beam="1">  1       -1 0.32602044E-01 0.91188000E+02</pdfrwt>
<totfact> 0.68238862E+04</totfact>
</mgrwt>
</event>
<event>
 3      1 +4.2044000e+04 9.11880000e+01 7.54677100e-03 1.30000000e-01
       -1 -1    0    0    0  501 -0.0000000000e+00 +0.0000000000e+00 +2.3647137571e+01 2.3647137571e+01 0.0000000000e+00 0.0000e+00 1.0000e+00
        1 -1    0    0  501    0 +0.0000000000e+00 -0.0000000000e+00 -8.7909702802e+01 8.7909702802e+01 0.0000000000e+00 0.0000e+00 -1.0000e+00
       23  1    1    2    0    0 +0.0000000000e+00 -0.0000000000e+00 -6.4262565231e+01 1.1155684037e+02 9.1188000000e+01 0.0000e+00 1.0000e+00
<mgrwt>
<rscale>  0 0.91188000E+02</rscale>
<asrwt>0</asrwt>
<pdfrwt beam="2">  1        1 0.13524570E-01 0.91188000E+02</pdfrwt>
<pdfrwt beam="1">  1       -1 0.36380211E-02 0.91188000E+02</pdfrwt>
<totfact> 0.10223666E+05</totfact>
</mgrwt>
</event>
<event>
 3      1 +4.2044000e+04 9.11880000e+01 7.54677100e-03 1.30000000e-01
       -1 -1    0    0    0  501 -0.0000000000e+00 +0.0000000000e+00 +1.6760925742e+01 1.6760925742e+01 0.0000000000e+00 0.0000e+00 1.0000e+00
        1 -1    0    0  501    0 +0.0000000000e+00 -0.0000000000e+00 -1.2402732808e+02 1.2402732808e+02 0.0000000000e+00 0.0000e+00 -1.0000e+00
       23  1    1    2    0    0 +0.0000000000e+00 -0.0000000000e+00 -1.0726640234e+02 1.4078825383e+02 9.1188000000e+01 0.0000e+00 1.0000e+00
<mgrwt>
<rscale>  0 0.91188000E+02</rscale>
<asrwt>0</asrwt>
<pdfrwt beam="2">  1        1 0.19081127E-01 0.91188000E+02</pdfrwt>
<pdfrwt beam="1">  1       -1 0.25786040E-02 0.91188000E+02</pdfrwt>
<totfact> 0.10832623E+05</totfact>
</mgrwt>
</event>
<event>
 3      1 +4.2044000e+04 9.11880000e+01 7.54677100e-03 1.30000000e-01
        1 -1    0    0  501    0 +0.0000000000e+00 +0.0000000000e+00 +6.4031099082e+02 6.4031099082e+02 0.0000000000e+00 0.0000e+00 -1.0000e+00
       -1 -1    0    0    0  501 -0.0000000000e+00 -0.0000000000e+00 -3.2465674739e+00 3.2465674739e+00 0.0000000000e+00 0.0000e+00 1.0000e+00
       23  1    1    2    0    0 +0.0000000000e+00 +0.0000000000e+00 +6.3706442335e+02 6.4355755830e+02 9.1188000000e+01 0.0000e+00 -1.0000e+00
<mgrwt>
<rscale>  0 0.91188000E+02</rscale>
<asrwt>0</asrwt>
<pdfrwt beam="1">  1        1 0.98509283E-01 0.91188000E+02</pdfrwt>
<pdfrwt beam="2">  1       -1 0.49947243E-03 0.91188000E+02</pdfrwt>
<totfact> 0.14197246E+05</totfact>
</mgrwt>
</event>
<event>
 3      1 +4.2044000e+04 9.11880000e+01 7.54677100e-03 1.30000000e-01
        3 -1    0    0  501    0 +0.0000000000e+00 +0.0000000000e+00 +1.2623402753e+01 1.2623402753e+01 0.0000000000e+00 0.0000e+00 -1.0000e+00
       -3 -1    0    0    0  501 -0.0000000000e+00 -0.0000000000e+00 -1.6467927679e+02 1.6467927679e+02 0.0000000000e+00 0.0000e+00 1.0000e+00
       23  1    1    2    0    0 +0.0000000000e+00 +0.0000000000e+00 -1.5205587403e+02 1.7730267954e+02 9.1188000000e+01 0.0000e+00 -1.0000e+00
<mgrwt>
<rscale>  0 0.91188000E+02</rscale>
<asrwt>0</asrwt>
<pdfrwt beam="1">  1        3 0.19420619E-02 0.91188000E+02</pdfrwt>
<pdfrwt beam="2">  1       -3 0.25335274E-01 0.91188000E+02</pdfrwt>
<totfact> 0.29705536E+04</totfact>
</mgrwt>
</event>
<event>
 3      1 +4.2044000e+04 9.11880000e+01 7.54677100e-03 1.30000000e-01
       -1 -1    0    0    0  501 -0.0000000000e+00 +0.0000000000e+00 +2.4141179724e+02 2.4141179724e+02 0.0000000000e+00 0.0000e+00 1.0000e+00
        1 -1    0    0  501    0 +0.0000000000e+00 -0.0000000000e+00 -8.6110656553e+00 8.6110656553e+00 0.0000000000e+00 0.0000e+00 -1.0000e+00
       23  1    1    2    0    0 +0.0000000000e+00 -0.0000000000e+00 +2.3280073159e+02 2.5002286290e+02 9.1188000000e+01 0.0000e+00 1.0000e+00
<mgrwt>
<rscale>  0 0.91188000E+02</rscale>
<asrwt>0</asrwt>
<pdfrwt beam="2">  1        1 0.13247795E-02 0.91188000E+02</pdfrwt>
<pdfrwt beam="1">  1       -1 0.37140271E-01 0.91188000E+02</pdfrwt>
<totfact> 0.65505209E+04</totfact>
</mgrwt>
</event>
<event>
 3      1 +4.2044000e+04 9.11880000e+01 7.54677100e-03 1.30000000e-01
        2 -1    0    0  501    0 +0.0000000000e+00 +0.0000000000e+00 +3.0577524931e+01 3.0577524931e+01 0.0000000000e+00 0.0000e+00 -1.0000e+00
       -2 -1    0    0    0  501 -0.0000000000e+00 -0.0000000000e+00 -6.7984993576e+01 6.7984993576e+01 0.0000000000e+00 0.0000e+00 1.0000e+00
       23  1    1    2    0    0 +0.0000000000e+00 +0.0000000000e+00 -3.7407468645e+01 9.8562518507e+01 9.1188000000e+01 0.0000e+00 -1.0000e+00
<mgrwt>
<rscale>  0 0.91188000E+02</rscale>
<asrwt>0</asrwt>
<pdfrwt beam="1">  1        2 0.47042347E-02 0.91188000E+02</pdfrwt>
<pdfrwt beam="2">  1       -2 0.10459230E-01 0.91188000E+02</pdfrwt>
<totfact> 0.88884528E+04</totfact>
</mgrwt>
</event>
<event>
 3      1 +4.2044000e+04 9.11880000e+01 7.54677100e-03 1.30000000e-01
        1 -1    0    0  501    0 +0.0000000000e+00 +0.0000000000e+00 +2.0741277761e+02 2.0741277761e+02 0.0000000000e+00 0.0000e+00 -1.0000e+00
       -1 -1    0    0    0  501 -0.0000000000e+00 -0.0000000000e+00 -1.0022588097e+01 1.0022588097e+01 0.0000000000e+00 0.0000e+00 1.0000e+00
       23  1    1    2    0    0 +0.0000000000e+00 +0.0000000000e+00 +1.9739018952e+02 2.1743536571e+02 9.1188000000e+01 0.0000e+00 -1.0000e+00
<mgrwt>
<rscale>  0 0.91188000E+02</rscale>
<asrwt>0</asrwt>
<pdfrwt beam="1">  1        1 0.31909655E-01 0.91188000E+02</pdfrwt>
<pdfrwt beam="2">  1       -1 0.15419368E-02 0.91188000E+02</pdfrwt>
<totfact> 0.11920694E+05</totfact>
</mgrwt>
</event>
<event>
 3      1 +4.2044000e+04 9.11880000e+01 7.54677100e-03 1.30000000e-01
       -1 -1    0    0    0  501 -0.0000000000e+00 +0.0000000000e+00 +1.0507381082e+02 1.0507381082e+02 0.0000000000e+00 0.0000e+00 1.0000e+00
        1 -1    0    0  501    0 +0.0000000000e+00 -0.0000000000e+00 -1.9784309904e+01 1.9784309904e+01 0.0000000000e+00 0.0000e+00 -1.0000e+00
       23  1    1    2    0    0 +0.0000000000e+00 -0.0000000000e+00 +8.5289500914e+01 1.2485812072e+02 9.1188000000e+01 0.0000e+00 1.0000e+00
<mgrwt>
<rscale>  0 0.91188000E+02</rscale>
<asrwt>0</asrwt>
<pdfrwt beam="2">  1        1 0.30437400E-02 0.91188000E+02</pdfrwt>
<pdfrwt beam="1">  1       -1 0.16165201E-01 0.91188000E+02</pdfrwt>
<totfact> 0.80590673E+04</totfact>
</mgrwt>
</event>
<event>
 3      1 +4.2044000e+04 9.11880000e+01 7.54677100e-03 1.30000000e-01
        3 -1    0    0  501    0 +0.0000000000e+00 +0.0000000000e+00 +3.2666805851e+01 3.2666805851e+01 0.0000000000e+00 0.0000e+00 -1.0000e+00
       -3 -1    0    0    0  501 -0.0000000000e+00 -0.0000000000e+00 -6.3636856492e+01 6.3636856492e+01 0.0000000000e+00 0.0000e+00 1.0000e+00
       23  1    1    2    0    0 +0.0000000000e+00 +0.0000000000e+00 -3.0970050641e+01 9.6303662343e+01 9.1188000000e+01 0.0000e+00 -1.0000e+00
<mgrwt>
<rscale>  0 0.91188000E+02</rscale>
<asrwt>0</asrwt>
<pdfrwt beam="1">  1        3 0.50256624E-02 0.91188000E+02</pdfrwt>
<pdfrwt beam="2">  1       -3 0.97902856E-02 0.91188000E+02</pdfrwt>
<totfact> 0.34936922E+04</totfact>
</mgrwt>
</event>
<event>
 3      1 +4.2044000e+04 9.11880000e+01 7.54677100e-03 1.30000000e-01
        1 -1    0    0  501    0 +0.0000000000e+00 +0.0000000000e+00 +1.8318580640e+01 1.8318580640e+01 0.0000000000e+00 0.0000e+00 -1.0000e+00
       -1 -1    0    0    0  501 -0.0000000000e+00 -0.0000000000e+00 -1.1348110844e+02 1.1348110844e+02 0.0000000000e+00 0.0000e+00 1.0000e+00
       23  1    1    2    0    0 +0.0000000000e+00 +0.0000000000e+00 -9.5162527798e+01 1.3179968908e+02 9.1188000000e+01 0.0000e+00 -1.0000e+00
<mgrwt>
<rscale>  0 0.91188000E+02</rscale>
<asrwt>0</asrwt>
<pdfrwt beam="1">  1        1 0.28182433E-02 0.91188000E+02</pdfrwt>
<pdfrwt beam="2">  1       -1 0.17458632E-01 0.91188000E+02</pdfrwt>
<totfact> 0.79393940E+04</totfact>
</mgrwt>
</event>
<event>
 3      1 +4.2044000e+04 9.11880000e+01 7.54677100e-03 1.30000000e-01
        2 -1    0    0  501    0 +0.0000000000e+00 +0.0000000000e+00 +2.5921876579e+01 2.5921876579e+01 0.0000000000e+00 0.0000e+00 -1.0000e+00
       -2 -1    0    0    0  501 -0.0000000000e+00 -0.0000000000e+00 -8.0195306449e+01 8.0195306449e+01 0.0000000000e+00 0.0000e+00 1.0000e+00
       23  1    1    2    0    0 +0.0000000000e+00 +0.0000000000e+00 -5.4273429869e+01 1.0611718303e+02 9.1188000000e+01 0.0000e+00 -1.0000e+00
<mgrwt>
<rscale>  0 0.91188000E+02</rscale>
<asrwt>0</asrwt>
<pdfrwt beam="1">  1        2 0.39879810E-02 0.91188000E+02</pdfrwt>
<pdfrwt beam="2">  1       -2 0.12337739E-01 0.91188000E+02</pdfrwt>
<totfact> 0.84995814E+04</totfact>
</mgrwt>
</event>
<event>
 3      1 +4.2044000e+04 9.11880000e+01 7.54677100e-03 1.30000000e-01
        2 -1    0    0  501    0 +0.0000000000e+00 +0.0000000000e+00 +9.1982672414e+01 9.1982672414e+01 0.0000000000e+00 0.0000e+00 -1.0000e+00
       -2 -1    0    0    0  501 -0.0000000000e+00 -0.0000000000e+00 -2.2600048264e+01 2.2600048264e+01 0.0000000000e+00 0.0000e+00 1.0000e+00
       23  1    1    2    0    0 +0.0000000000e+00 +0.0000000000e+00 +6.9382624150e+01 1.1458272068e+02 9.1188000000e+01 0.0000e+00 -1.0000e+00
<mgrwt>
<rscale>  0 0.91188000E+02</rscale>
<asrwt>0</asrwt>
<pdfrwt beam="1">  1        2 0.14151180E-01 0.91188000E+02</pdfrwt>
<pdfrwt beam="2">  1       -2 0.34769306E-02 0.91188000E+02</pdfrwt>
<totfact> 0.11958854E+05</totfact>
</mgrwt>
</event>
<event>
 3      1 +4.2044000e+04 9.11880000e+01 7.54677100e-03 1.30000000e-01
        1 -1    0    0  501    0 +0.0000000000e+00 +0.0000000000e+00 +8.5532412470e+00 8.5532412470e+00 0.0000000000e+00 0.0000e+00 -1.0000e+00
       -1 -1    0    0    0  501 -0.0000000000e+00 -0.0000000000e+00 -2.4304386793e+02 2.4304386793e+02 0.0000000000e+00 0.0000e+00 1.0000e+00
       23  1    1    2    0    0 +0.0000000000e+00 +0.0000000000e+00 -2.3449062668e+02 2.5159710918e+02 9.1188000000e+01 0.0000e+00 -1.0000e+00
<mgrwt>
<rscale>  0 0.91188000E+02</rscale>
<asrwt>0</asrwt>
<pdfrwt beam="1">  1        1 0.13158830E-02 0.91188000E+02</pdfrwt>
<pdfrwt beam="2">  1       -1 0.37391371E-01 0.91188000E+02</pdfrwt>
<totfact> 0.65359460E+04</totfact>
</mgrwt>
</event>
<event>
 3      1 +4.2044000e+04 9.11880000e+01 7.54677100e-03 1.30000000e-01
       -2 -1    0    0    0  501 -0.0000000000e+00 +0.0000000000e+00 +2.0245588305e+01 2.0245588305e+01 0.0000000000e+00 0.0000e+00 1.0000e+00
        2 -1    0    0  501    0 +0.0000000000e+00 -0.0000000000e+00 -1.0267979397e+02 1.0267979397e+02 0.0000000000e+00 0.0000e+00 -1.0000e+00
       23  1    1    2    0    0 +0.0000000000e+00 -0.0000000000e+00 -8.2434205669e+01 1.2292538228e+02 9.1188000000e+01 0.0000e+00 1.0000e+00
<mgrwt>
<rscale>  0 0.91188000E+02</rscale>
<asrwt>0</asrwt>
<pdfrwt beam="2">  1        2 0.15796891E-01 0.91188000E+02</pdfrwt>
<pdfrwt beam="1">  1       -2 0.31147059E-02 0.91188000E+02</pdfrwt>
<totfact> 0.12363008E+05</totfact>
</mgrwt>
</event>
<event>
 3      1 +4.2044000e+04 9.11880000e+01 7.54677100e-03 1.30000000e-01
        4 -1    0    0  501    0 +0.0000000000e+00 +0.0000000000e+00 +1.3123607955e+01 1.3123607955e+01 0.0000000000e+00 0.0000e+00 1.0000e+00
       -4 -1    0    0    0  501 -0.0000000000e+00 -0.0000000000e+00 -1.5840254015e+02 1.5840254015e+02 0.0000000000e+00 0.0000e+00 -1.0000e+00
       23  1    1    2    0    0 +0.0000000000e+00 +0.0000000000e+00 -1.4527893220e+02 1.7152614811e+02 9.1188000000e+01 0.0000e+00 1.0000e+00
<mgrwt>
<rscale>  0 0.91188000E+02</rscale>
<asrwt>0</asrwt>
<pdfrwt beam="1">  1        4 0.20190168E-02 0.91188000E+02</pdfrwt>
<pdfrwt beam="2">  1       -4 0.24369620E-01 0.91188000E+02</pdfrwt>
<totfact> 0.22629442E+04</totfact>
</mgrwt>
</event>
<event>
 3      1 +4.2044000e+04 9.11880000e+01 7.54677100e-03 1.30000000e-01
        1 -1    0    0  501    0 +0.0000000000e+00 +0.0000000000e+00 +3.5380807380e+02 3.5380807380e+02 0.0000000000e+00 0.0000e+00 -1.0000e+00
       -1 -1    0    0    0  501 -0.0000000000e+00 -0.0000000000e+00 -5.8755381518e+00 5.8755381518e+00 0.0000000000e+00 0.0000e+00 1.0000e+00
       23  1    1    2    0    0 +0.0000000000e+00 +0.0000000000e+00 +3.4793253565e+02 3.5968361195e+02 9.1188000000e+01 0.0000e+00 -1.0000e+00
<mgrwt>
<rscale>  0 0.91188000E+02</rscale>
<asrwt>0</asrwt>
<pdfrwt beam="1">  1        1 0.54431995E-01 0.91188000E+02</pdfrwt>
<pdfrwt beam="2">  1       -1 0.90392922E-03 0.91188000E+02</pdfrwt>
<totfact> 0.13204370E+05</totfact>
</mgrwt>
</event>
<event>
 3      1 +4.2044000e+04 9.11880000e+01 7.54677100e-03 1.30000000e-01
        2 -1    0    0  501    0 +0.0000000000e+00 +0.0000000000e+00 +2.3789879421e+01 2.3789879421e+01 0.0000000000e+00 0.0000e+00 -1.0000e+00
       -2 -1    0    0    0  501 -0.0000000000e+00 -0.0000000000e+00 -8.7382235077e+01 8.7382235077e+01 0.0000000000e+00 0.0000e+00 1.0000e+00
       23  1    1    2    0    0 +0.0000000000e+00 +0.0000000000e+00 -6.3592355656e+01 1.1117211450e+02 9.1188000000e+01 0.0000e+00 -1.0000e+00
<mgrwt>
<rscale>  0 0.91188000E+02</rscale>
<asrwt>0</asrwt>
<pdfrwt beam="1">  1        2 0.36599814E-02 0.91188000E+02</pdfrwt>
<pdfrwt beam="2">  1       -2 0.13443421E-01 0.91188000E+02</pdfrwt>
<totfact> 0.82976204E+04</totfact>
</mgrwt>
</event>
<event>
 3      1 +4.2044000e+04 9.11880000e+01 7.54677100e-03 1.30000000e-01
        4 -1    0    0  501    0 +0.0000000000e+00 +0.0000000000e+00 +1.8170205309e+02 1.8170205309e+02 0.0000000000e+00 0.0000e+00 -1.0000e+00
       -4 -1    0    0    0  501 -0.0000000000e+00 -0.0000000000e+00 -1.1440777914e+01 1.1440777914e+01 0.0000000000e+00 0.0000e+00 1.0000e+00
       23  1    1    2    0    0 +0.0000000000e+00 +0.0000000000e+00 +1.7026127518e+02 1.9314283101e+02 9.1188000000e+01 0.0000e+00 -1.0000e+00
<mgrwt>
<rscale>  0 0.91188000E+02</rscale>
<asrwt>0</asrwt>
<pdfrwt beam="1">  1        4 0.27954160E-01 0.91188000E+02</pdfrwt>
<pdfrwt beam="2">  1       -4 0.17601198E-02 0.91188000E+02</pdfrwt>
<totfact> 0.21668966E+04</totfact>
</mgrwt>
</event>
<event>
 3      1 +4.2044000e+04 9.11880000e+01 7.54677100e-03 1.30000000e-01
        1 -1    0    0  501    0 +0.0000000000e+00 +0.0000000000e+00 +2.2872558637e+02 2.2872558637e+02 0.0000000000e+00 0.0000e+00 -1.0000e+00
       -1 -1    0    0    0  501 -0.0000000000e+00 -0.0000000000e+00 -9.0886763874e+00 9.0886763874e+00 0.0000000000e+00 0.0000e+00 1.0000e+00
       23  1    1    2    0    0 +0.0000000000e+00 +0.0000000000e+00 +2.1963690998e+02 2.3781426275e+02 9.1188000000e+01 0.0000e+00 -1.0000e+00
<mgrwt>
<rscale>  0 0.91188000E+02</rscale>
<asrwt>0</asrwt>
<pdfrwt beam="1">  1        1 0.35188547E-01 0.91188000E+02</pdfrwt>
<pdfrwt beam="2">  1       -1 0.13982581E-02 0.91188000E+02</pdfrwt>
<totfact> 0.12150312E+05</totfact>
</mgrwt>
</event>
<event>
 3      1 +4.2044000e+04 9.11880000e+01 7.54677100e-03 1.30000000e-01
       -2 -1    0    0    0  501 -0.0000000000e+00 +0.0000000000e+00 +3.7115427201e+01 3.7115427201e+01 0.0000000000e+00 0.0000e+00 1.0000e+00
        2 -1    0    0  501    0 +0.0000000000e+00 -0.0000000000e+00 -5.6009400747e+01 5.6009400747e+01 0.0000000000e+00 0.0000e+00 -1.0000e+00
       23  1    1    2    0    0 +0.0000000000e+00 -0.0000000000e+00 -1.8893973546e+01 9.3124827948e+01 9.1188000000e+01 0.0000e+00 1.0000e+00
<mgrwt>
<rscale>  0 0.91188000E+02</rscale>
<asrwt>0</asrwt>
<pdfrwt beam="2">  1        2 0.86168308E-02 0.91188000E+02</pdfrwt>
<pdfrwt beam="1">  1       -2 0.57100658E-02 0.91188000E+02</pdfrwt>
<totfact> 0.10410451E+05</totfact>
</mgrwt>
</event>
<event>
 3      1 +4.2044000e+04 9.11880000e+01 7.54677100e-03 1.30000000e-01
       -2 -1    0    0    0  501 -0.0000000000e+00 +0.0000000000e+00 +1.5950411311e+01 1.5950411311e+01 0.0000000000e+00 0.0000e+00 1.0000e+00
        2 -1    0    0  501    0 +0.0000000000e+00 -0.0000000000e+00 -1.3032973229e+02 1.3032973229e+02 0.0000000000e+00 0.0000e+00 -1.0000e+00
       23  1    1    2    0    0 +0.0000000000e+00 -0.0000000000e+00 -1.1437932098e+02 1.4628014360e+02 9.1188000000e+01 0.0000e+00 1.0000e+00
<mgrwt>
<rscale>  0 0.91188000E+02</rscale>
<asrwt>0</asrwt>
<pdfrwt beam="2">  1        2 0.20050728E-01 0.91188000E+02</pdfrwt>
<pdfrwt beam="1">  1       -2 0.24539094E-02 0.91188000E+02</pdfrwt>
<totfact> 0.13334693E+05</totfact>
</mgrwt>
</event>
<event>
 3      1 +4.2044000e+04 9.11880000e+01 7.54677100e-03 1.30000000e-01
       -2 -1    0    0    0  501 -0.0000000000e+00 +0.0000000000e+00 +2.1053015210e+00 2.1053015210e+00 0.0000000000e+00 0.0000e+00 1.0000e+00
        2 -1    0    0  501    0 +0.0000000000e+00 -0.0000000000e+00 -9.8741810389e+02 9.8741810389e+02 0.0000000000e+00 0.0000e+00 -1.0000e+00
       23  1    1    2    0    0 +0.0000000000e+00 -0.0000000000e+00 -9.8531280237e+02 9.8952340541e+02 9.1188000000e+01 0.0000e+00 1.0000e+00
<mgrwt>
<rscale>  0 0.91188000E+02</rscale>
<asrwt>0</asrwt>
<pdfrwt beam="2">  1        2 0.15191046E+00 0.91188000E+02</pdfrwt>
<pdfrwt beam="1">  1       -2 0.32389258E-03 0.91188000E+02</pdfrwt>
<totfact> 0.24978155E+05</totfact>
</mgrwt>
</event>
<event>
 3      1 +4.2044000e+04 9.11880000e+01 7.54677100e-03 1.30000000e-01
       -3 -1    0    0    0  501 -0.0000000000e+00 +0.0000000000e+00 +3.5095191975e+00 3.5095191975e+00 0.0000000000e+00 0.0000e+00 1.0000e+00
        3 -1    0    0  501    0 +0.0000000000e+00 -0.0000000000e+00 -5.9233550781e+02 5.9233550781e+02 0.0000000000e+00 0.0000e+00 -1.0000e+00
       23  1    1    2    0    0 +0.0000000000e+00 -0.0000000000e+00 -5.8882598861e+02 5.9584502701e+02 9.1188000000e+01 0.0000e+00 1.0000e+00
<mgrwt>
<rscale>  0 0.91188000E+02</rscale>
<asrwt>0</asrwt>
<pdfrwt beam="2">  1        3 0.91128537E-01 0.91188000E+02</pdfrwt>
<pdfrwt beam="1">  1       -3 0.53992605E-03 0.91188000E+02</pdfrwt>
<totfact> 0.15804325E+04</totfact>
</mgrwt>
</event>
<event>
 3      1 +4.2044000e+04 9.11880000e+01 7.54677100e-03 1.30000000e-01
        2 -1    0    0  501    0 +0.0000000000e+00 +0.0000000000e+00 +3.4088839116e+02 3.4088839116e+02 0.0000000000e+00 0.0000e+00 -1.0000e+00
       -2 -1    0    0    0  501 -0.0000000000e+00 -0.0000000000e+00 -6.0982212651e+00 6.0982212651e+00 0.0000000000e+00 0.0000e+00 1.0000e+00
       23  1    1    2    0    0 +0.0000000000e+00 +0.0000000000e+00 +3.3479016990e+02 3.4698661243e+02 9.1188000000e+01 0.0000e+00 -1.0000e+00
<mgrwt>
<rscale>  0 0.91188000E+02</rscale>
<asrwt>0</asrwt>
<pdfrwt beam="1">  1        2 0.52444353E-01 0.91188000E+02</pdfrwt>
<pdfrwt beam="2">  1       -2 0.93818815E-03 0.91188000E+02</pdfrwt>
<totfact> 0.18830427E+05</totfact>
</mgrwt>
</event>
<event>
 3      1 +4.2044000e+04 9.11880000e+01 7.54677100e-03 1.30000000e-01
        2 -1    0    0  501    0 +0.0000000000e+00 +0.0000000000e+00 +1.9680059837e+03 1.9680059837e+03 0.0000000000e+00 0.0000e+00 -1.0000e+00
       -2 -1    0    0    0  501 -0.0000000000e+00 -0.0000000000e+00 -1.0563041237e+00 1.0563041237e+00 0.0000000000e+00 0.0000e+00 1.0000e+00
       23  1    1    2    0    0 +0.0000000000e+00 +0.0000000000e+00 +1.9669496795e+03 1.9690622878e+03 9.1188000000e+01 0.0000e+00 -1.0000e+00
<mgrwt>
<rscale>  0 0.91188000E+02</rscale>
<asrwt>0</asrwt>
<pdfrwt beam="1">  1        2 0.30276722E+00 0.91188000E+02</pdfrwt>
<pdfrwt beam="2">  1       -2 0.16250990E-03 0.91188000E+02</pdfrwt>
<totfact> 0.19966209E+05</totfact>
</mgrwt>
</event>
<event>
 3      1 +4.2044000e+04 9.11880000e+01 7.54677100e-03 1.30000000e-01
        2 -1    0    0  501    0 +0.0000000000e+00 +0.0000000000e+00 +6.9863883316e+01 6.9863883316e+01 0.0000000000e+00 0.0000e+00 1.0000e+00
       -2 -1    0    0    0  501 -0.0000000000e+00 -0.0000000000e+00 -2.9755185903e+01 2.9755185903e+01 0.0000000000e+00 0.0000e+00 -1.0000e+00
       23  1    1    2    0    0 +0.0000000000e+00 +0.0000000000e+00 +4.0108697413e+01 9.9619069219e+01 9.1188000000e+01 0.0000e+00 1.0000e+00
<mgrwt>
<rscale>  0 0.91188000E+02</rscale>
<asrwt>0</asrwt>
<pdfrwt beam="1">  1        2 0.10748290E-01 0.91188000E+02</pdfrwt>
<pdfrwt beam="2">  1       -2 0.45777209E-02 0.91188000E+02</pdfrwt>
<totfact> 0.11052199E+05</totfact>
</mgrwt>
</event>
<event>
 3      1 +4.2044000e+04 9.11880000e+01 7.54677100e-03 1.30000000e-01
       -1 -1    0    0    0  501 -0.0000000000e+00 +0.0000000000e+00 +6.0417562206e-01 6.0417562206e-01 0.0000000000e+00 0.0000e+00 1.0000e+00
        1 -1    0    0  501    0 +0.0000000000e+00 -0.0000000000e+00 -3.4407426584e+03 3.4407426584e+03 0.0000000000e+00 0.0000e+00 -1.0000e+00
       23  1    1    2    0    0 +0.0000000000e+00 -0.0000000000e+00 -3.4401384828e+03 3.4413468340e+03 9.1188000000e+01 0.0000e+00 1.0000e+00
<mgrwt>
<rscale>  0 0.91188000E+02</rscale>
<asrwt>0</asrwt>
<pdfrwt beam="2">  1        1 0.52935176E+00 0.91188000E+02</pdfrwt>
<pdfrwt beam="1">  1       -1 0.92948912E-04 0.91188000E+02</pdfrwt>
<totfact> 0.18619529E+04</totfact>
</mgrwt>
</event>
<event>
 3      1 +4.2044000e+04 9.11880000e+01 7.54677100e-03 1.30000000e-01
        3 -1    0    0  501    0 +0.0000000000e+00 +0.0000000000e+00 +2.2764290697e+03 2.2764290697e+03 0.0000000000e+00 0.0000e+00 -1.0000e+00
       -3 -1    0    0    0  501 -0.0000000000e+00 -0.0000000000e+00 -9.1319025206e-01 9.1319025206e-01 0.0000000000e+00 0.0000e+00 1.0000e+00
       23  1    1    2    0    0 +0.0000000000e+00 +0.0000000000e+00 +2.2755158795e+03 2.2773422600e+03 9.1188000000e+01 0.0000e+00 -1.0000e+00
<mgrwt>
<rscale>  0 0.91188000E+02</rscale>
<asrwt>0</asrwt>
<pdfrwt beam="1">  1        3 0.35021531E+00 0.91188000E+02</pdfrwt>
<pdfrwt beam="2">  1       -3 0.14049263E-03 0.91188000E+02</pdfrwt>
<totfact> 0.26869687E+03</totfact>
</mgrwt>
</event>
<event>
 3      1 +4.2044000e+04 9.11880000e+01 7.54677100e-03 1.30000000e-01
       -1 -1    0    0    0  501 -0.0000000000e+00 +0.0000000000e+00 +3.1589284306e+01 3.1589284306e+01 0.0000000000e+00 0.0000e+00 1.0000e+00
        1 -1    0    0  501    0 +0.0000000000e+00 -0.0000000000e+00 -6.5807531943e+01 6.5807531943e+01 0.0000000000e+00 0.0000e+00 -1.0000e+00
       23  1    1    2    0    0 +0.0000000000e+00 -0.0000000000e+00 -3.4218247638e+01 9.7396816249e+01 9.1188000000e+01 0.0000e+00 1.0000e+00
<mgrwt>
<rscale>  0 0.91188000E+02</rscale>
<asrwt>0</asrwt>
<pdfrwt beam="2">  1        1 0.10124236E-01 0.91188000E+02</pdfrwt>
<pdfrwt beam="1">  1       -1 0.48598900E-02 0.91188000E+02</pdfrwt>
<totfact> 0.97702072E+04</totfact>
</mgrwt>
</event>
<event>
 3      1 +4.2044000e+04 9.11880000e+01 7.54677100e-03 1.30000000e-01
       -1 -1    0    0    0  501 -0.0000000000e+00 +0.0000000000e+00 +6.4742577830e+00 6.4742577830e+00 0.0000000000e+00 0.0000e+00 1.0000e+00
        1 -1    0    0  501    0 +0.0000000000e+00 -0.0000000000e+00 -3.2108898127e+02 3.2108898127e+02 0.0000000000e+00 0.0000e+00 -1.0000e+00
       23  1    1    2    0    0 +0.0000000000e+00 -0.0000000000e+00 -3.1461472348e+02 3.2756323905e+02 9.1188000000e+01 0.0000e+00 1.0000e+00
<mgrwt>
<rscale>  0 0.91188000E+02</rscale>
<asrwt>0</asrwt>
<pdfrwt beam="2">  1        1 0.49398304E-01 0.91188000E+02</pdfrwt>
<pdfrwt beam="1">  1       -1 0.99603968E-03 0.91188000E+02</pdfrwt>
<totfact> 0.12973120E+05</totfact>
</mgrwt>
</event>
<event>
 3      1 +4.2044000e+04 9.11880000e+01 7.54677100e-03 1.30000000e-01
       -1 -1    0    0    0  501 -0.0000000000e+00 +0.0000000000e+00 +9.3601035231e+00 9.3601035231e+00 0.0000000000e+00 0.0000e+00 1.0000e+00
        1 -1    0    0  501    0 +0.0000000000e+00 -0.0000000000e+00 -2.2209293208e+02 2.2209293208e+02 0.0000000000e+00 0.0000e+00 -1.0000e+00
       23  1    1    2    0    0 +0.0000000000e+00 -0.0000000000e+00 -2.1273282855e+02 2.3145303560e+02 9.1188000000e+01 0.0000e+00 1.0000e+00
<mgrwt>
<rscale>  0 0.91188000E+02</rscale>
<asrwt>0</asrwt>
<pdfrwt beam="2">  1        1 0.34168142E-01 0.91188000E+02</pdfrwt>
<pdfrwt beam="1">  1       -1 0.14400160E-02 0.91188000E+02</pdfrwt>
<totfact> 0.12080683E+05</totfact>
</mgrwt>
</event>
<event>
 3      1 +4.2044000e+04 9.11880000e+01 7.54677100e-03 1.30000000e-01
        3 -1    0    0  501    0 +0.0000000000e+00 +0.0000000000e+00 +6.9682239019e+01 6.9682239019e+01 0.0000000000e+00 0.0000e+00 -1.0000e+00
       -3 -1    0    0    0  501 -0.0000000000e+00 -0.0000000000e+00 -2.9832750286e+01 2.9832750286e+01 0.0000000000e+00 0.0000e+00 1.0000e+00
       23  1    1    2    0    0 +0.0000000000e+00 +0.0000000000e+00 +3.9849488733e+01 9.9514989305e+01 9.1188000000e+01 0.0000e+00 -1.0000e+00
<mgrwt>
<rscale>  0 0.91188000E+02</rscale>
<asrwt>0</asrwt>
<pdfrwt beam="1">  1        3 0.10720344E-01 0.91188000E+02</pdfrwt>
<pdfrwt beam="2">  1       -3 0.45896539E-02 0.91188000E+02</pdfrwt>
<totfact> 0.34695421E+04</totfact>
</mgrwt>
</event>
<event>
 3      1 +4.2044000e+04 9.11880000e+01 7.54677100e-03 1.30000000e-01
       -2 -1    0    0    0  501 -0.0000000000e+00 +0.0000000000e+00 +6.8037606825e-01 6.8037606825e-01 0.0000000000e+00 0.0000e+00 1.0000e+00
        2 -1    0    0  501    0 +0.0000000000e+00 -0.0000000000e+00 -3.0553879435e+03 3.0553879435e+03 0.0000000000e+00 0.0000e+00 -1.0000e+00
       23  1    1    2    0    0 +0.0000000000e+00 -0.0000000000e+00 -3.0547075675e+03 3.0560683196e+03 9.1188000000e+01 0.0000e+00 1.0000e+00
<mgrwt>
<rscale>  0 0.91188000E+02</rscale>
<asrwt>0</asrwt>
<pdfrwt beam="2">  1        2 0.47005144E+00 0.91188000E+02</pdfrwt>
<pdfrwt beam="1">  1       -2 0.10467508E-03 0.91188000E+02</pdfrwt>
<totfact> 0.97123451E+04</totfact>
</mgrwt>
</event>
<event>
 3      1 +4.2044000e+04 9.11880000e+01 7.54677100e-03 1.30000000e-01
        2 -1    0    0  501    0 +0.0000000000e+00 +0.0000000000e+00 +4.1715620619e+02 4.1715620619e+02 0.0000000000e+00 0.0000e+00 -1.0000e+00
       -2 -1    0    0    0  501 -0.0000000000e+00 -0.0000000000e+00 -4.9832959576e+00 4.9832959576e+00 0.0000000000e+00 0.0000e+00 1.0000e+00
       23  1    1    2    0    0 +0.0000000000e+00 +0.0000000000e+00 +4.1217291023e+02 4.2213950215e+02 9.1188000000e+01 0.0000e+00 -1.0000e+00
<mgrwt>
<rscale>  0 0.91188000E+02</rscale>
<asrwt>0</asrwt>
<pdfrwt beam="1">  1        2 0.64177851E-01 0.91188000E+02</pdfrwt>
<pdfrwt beam="2">  1       -2 0.76666124E-03 0.91188000E+02</pdfrwt>
<totfact> 0.20255942E+05</totfact>
</mgrwt>
</event>
<event>
 3      1 +4.2044000e+04 9.11880000e+01 7.54677100e-03 1.30000000e-01
        1 -1    0    0  501    0 +0.0000000000e+00 +0.0000000000e+00 +1.1247202741e+01 1.1247202741e+01 0.0000000000e+00 0.0000e+00 -1.0000e+00
       -1 -1    0    0    0  501 -0.0000000000e+00 -0.0000000000e+00 -1.8482932014e+02 1.8482932014e+02 0.0000000000e+00 0.0000e+00 1.0000e+00
       23  1    1    2    0    0 +0.0000000000e+00 +0.0000000000e+00 -1.7358211740e+02 1.9607652288e+02 9.1188000000e+01 0.0000e+00 -1.0000e+00
<mgrwt>
<rscale>  0 0.91188000E+02</rscale>
<asrwt>0</asrwt>
<pdfrwt beam="1">  1        1 0.17303391E-02 0.91188000E+02</pdfrwt>
<pdfrwt beam="2">  1       -1 0.28435277E-01 0.91188000E+02</pdfrwt>
<totfact> 0.70941735E+04</totfact>
</mgrwt>
</event>
<event>
 3      1 +4.2044000e+04 9.11880000e+01 7.54677100e-03 1.30000000e-01
        2 -1    0    0  501    0 +0.0000000000e+00 +0.0000000000e+00 +2.7837423741e+03 2.7837423741e+03 0.0000000000e+00 0.0000e+00 -1.0000e+00
       -2 -1    0    0    0  501 -0.0000000000e+00 -0.0000000000e+00 -7.4676911748e-01 7.4676911748e-01 0.0000000000e+00 0.0000e+00 1.0000e+00
       23  1    1    2    0    0 +0.0000000000e+00 +0.0000000000e+00 +2.7829956050e+03 2.7844891432e+03 9.1188000000e+01 0.0000e+00 -1.0000e+00
<mgrwt>
<rscale>  0 0.91188000E+02</rscale>
<asrwt>0</asrwt>
<pdfrwt beam="1">  1        2 0.42825975E+00 0.91188000E+02</pdfrwt>
<pdfrwt beam="2">  1       -2 0.11488979E-03 0.91188000E+02</pdfrwt>
<totfact> 0.12135956E+05</totfact>
</mgrwt>
</event>
<event>
 3      1 +4.2044000e+04 9.11880000e+01 7.54677100e-03 1.30000000e-01
       -2 -1    0    0    0  501 -0.0000000000e+00 +0.0000000000e+00 +5.8703735725e+00 5.8703735725e+00 0.0000000000e+00 0.0000e+00 1.0000e+00
        2 -1    0    0  501    0 +0.0000000000e+00 -0.0000000000e+00 -3.5411934357e+02 3.5411934357e+02 0.0000000000e+00 0.0000e+00 -1.0000e+00
       23  1    1    2    0    0 +0.0000000000e+00 -0.0000000000e+00 -3.4824897000e+02 3.5998971714e+02 9.1188000000e+01 0.0000e+00 1.0000e+00
<mgrwt>
<rscale>  0 0.91188000E+02</rscale>
<asrwt>0</asrwt>
<pdfrwt beam="2">  1        2 0.54479873E-01 0.91188000E+02</pdfrwt>
<pdfrwt beam="1">  1       -2 0.90313483E-03 0.91188000E+02</pdfrwt>
<totfact> 0.19095006E+05</totfact>
</mgrwt>
</event>
<event>
 3      1 +4.2044000e+04 9.11880000e+01 7.54677100e-03 1.30000000e-01
       -3 -1    0    0    0  501 -0.0000000000e+00 +0.0000000000e+00 +3.8802531604e+01 3.8802531604e+01 0.0000000000e+00 0.0000e+00 1.0000e+00
        3 -1    0    0  501    0 +0.0000000000e+00 -0.0000000000e+00 -5.3574154831e+01 5.3574154831e+01 0.0000000000e+00 0.0000e+00 -1.0000e+00
       23  1    1    2    0    0 +0.0000000000e+00 -0.0000000000e+00 -1.4771623226e+01 9.2376686435e+01 9.1188000000e+01 0.0000e+00 1.0000e+00
<mgrwt>
<rscale>  0 0.91188000E+02</rscale>
<asrwt>0</asrwt>
<pdfrwt beam="2">  1        3 0.82421777E-02 0.91188000E+02</pdfrwt>
<pdfrwt beam="1">  1       -3 0.59696202E-02 0.91188000E+02</pdfrwt>
<totfact> 0.35235015E+04</totfact>
</mgrwt>
</event>
<event>
 3      1 +4.2044000e+04 9.11880000e+01 7.54677100e-03 1.30000000e-01
       -2 -1    0    0    0  501 -0.0000000000e+00 +0.0000000000e+00 +4.1299105438e+00 4.1299105438e+00 0.0000000000e+00 0.0000e+00 1.0000e+00
        2 -1    0    0  501    0 +0.0000000000e+00 -0.0000000000e+00 -5.0335541507e+02 5.0335541507e+02 0.0000000000e+00 0.0000e+00 -1.0000e+00
       23  1    1    2    0    0 +0.0000000000e+00 -0.0000000000e+00 -4.9922550453e+02 5.0748532561e+02 9.1188000000e+01 0.0000e+00 1.0000e+00
<mgrwt>
<rscale>  0 0.91188000E+02</rscale>
<asrwt>0</asrwt>
<pdfrwt beam="2">  1        2 0.77439266E-01 0.91188000E+02</pdfrwt>
<pdfrwt beam="1">  1       -2 0.63537108E-03 0.91188000E+02</pdfrwt>
<totfact> 0.21589483E+05</totfact>
</mgrwt>
</event>
<event>
 3      1 +4.2044000e+04 9.11880000e+01 7.54677100e-03 1.30000000e-01
       -3 -1    0    0    0  501 -0.0000000000e+00 +0.0000000000e+00 +8.5846661692e+01 8.5846661692e+01 0.0000000000e+00 0.0000e+00 1.0000e+00
        3 -1    0    0  501    0 +0.0000000000e+00 -0.0000000000e+00 -2.4215418457e+01 2.4215418457e+01 0.0000000000e+00 0.0000e+00 -1.0000e+00
       23  1    1    2    0    0 +0.0000000000e+00 -0.0000000000e+00 +6.1631243235e+01 1.1006208015e+02 9.1188000000e+01 0.0000e+00 1.0000e+00
<mgrwt>
<rscale>  0 0.91188000E+02</rscale>
<asrwt>0</asrwt>
<pdfrwt beam="2">  1        3 0.37254490E-02 0.91188000E+02</pdfrwt>
<pdfrwt beam="1">  1       -3 0.13207179E-01 0.91188000E+02</pdfrwt>
<totfact> 0.33930672E+04</totfact>
</mgrwt>
</event>
<event>
 3      1 +4.2044000e+04 9.11880000e+01 7.54677100e-03 1.30000000e-01
        1 -1    0    0  501    0 +0.0000000000e+00 +0.0000000000e+00 +3.0907757132e+02 3.0907757132e+02 0.0000000000e+00 0.0000e+00 1.0000e+00
       -1 -1    0    0    0  501 -0.0000000000e+00 -0.0000000000e+00 -6.7258611718e+00 6.7258611718e+00 0.0000000000e+00 0.0000e+00 -1.0000e+00
       23  1    1    2    0    0 +0.0000000000e+00 +0.0000000000e+00 +3.0235171015e+02 3.1580343249e+02 9.1188000000e+01 0.0000e+00 1.0000e+00
<mgrwt>
<rscale>  0 0.91188000E+02</rscale>
<asrwt>0</asrwt>
<pdfrwt beam="1">  1        1 0.47550384E-01 0.91188000E+02</pdfrwt>
<pdfrwt beam="2">  1       -1 0.10347481E-02 0.91188000E+02</pdfrwt>
<totfact> 0.12880669E+05</totfact>
</mgrwt>
</event>
<event>
 3      1 +4.2044000e+04 9.11880000e+01 7.54677100e-03 1.30000000e-01
        4 -1    0    0  501    0 +0.0000000000e+00 +0.0000000000e+00 +6.2894879512e+00 6.2894879512e+00 0.0000000000e+00 0.0000e+00 -1.0000e+00
       -4 -1    0    0    0  501 -0.0000000000e+00 -0.0000000000e+00 -3.3052179321e+02 3.3052179321e+02 0.0000000000e+00 0.0000e+00 1.0000e+00
       23  1    1    2    0    0 +0.0000000000e+00 +0.0000000000e+00 -3.2423230526e+02 3.3681128116e+02 9.1188000000e+01 0.0000e+00 -1.0000e+00
<mgrwt>
<rscale>  0 0.91188000E+02</rscale>
<asrwt>0</asrwt>
<pdfrwt beam="1">  1        4 0.96761340E-03 0.91188000E+02</pdfrwt>
<pdfrwt beam="2">  1       -4 0.50849514E-01 0.91188000E+02</pdfrwt>
<totfact> 0.16747926E+04</totfact>
</mgrwt>
</event>
<event>
 3      1 +4.2044000e+04 9.11880000e+01 7.54677100e-03 1.30000000e-01
        1 -1    0    0  501    0 +0.0000000000e+00 +0.0000000000e+00 +1.3882091190e+02 1.3882091190e+02 0.0000000000e+00 0.0000e+00 -1.0000e+00
       -1 -1    0    0    0  501 -0.0000000000e+00 -0.0000000000e+00 -1.4974781591e+01 1.4974781591e+01 0.0000000000e+00 0.0000e+00 1.0000e+00
       23  1    1    2    0    0 +0.0000000000e+00 +0.0000000000e+00 +1.2384613031e+02 1.5379569349e+02 9.1188000000e+01 0.0000e+00 -1.0000e+00
<mgrwt>
<rscale>  0 0.91188000E+02</rscale>
<asrwt>0</asrwt>
<pdfrwt beam="1">  1        1 0.21357062E-01 0.91188000E+02</pdfrwt>
<pdfrwt beam="2">  1       -1 0.23038127E-02 0.91188000E+02</pdfrwt>
<totfact> 0.11052418E+05</totfact>
</mgrwt>
</event>
<event>
 3      1 +4.2044000e+04 9.11880000e+01 7.54677100e-03 1.30000000e-01
       -1 -1    0    0    0  501 -0.0000000000e+00 +0.0000000000e+00 +4.5284501103e+00 4.5284501103e+00 0.0000000000e+00 0.0000e+00 1.0000e+00
        1 -1    0    0  501    0 +0.0000000000e+00 -0.0000000000e+00 -4.5905614180e+02 4.5905614180e+02 0.0000000000e+00 0.0000e+00 -1.0000e+00
       23  1    1    2    0    0 +0.0000000000e+00 -0.0000000000e+00 -4.5452769169e+02 4.6358459192e+02 9.1188000000e+01 0.0000e+00 1.0000e+00
<mgrwt>
<rscale>  0 0.91188000E+02</rscale>
<asrwt>0</asrwt>
<pdfrwt beam="2">  1        1 0.70624018E-01 0.91188000E+02</pdfrwt>
<pdfrwt beam="1">  1       -1 0.69668467E-03 0.91188000E+02</pdfrwt>
<totfact> 0.13769827E+05</totfact>
</mgrwt>
</event>
<event>
 3      1 +4.2044000e+04 9.11880000e+01 7.54677100e-03 1.30000000e-01
        2 -1    0    0  501    0 +0.0000000000e+00 +0.0000000000e+00 +5.0328102108e+01 5.0328102108e+01 0.0000000000e+00 0.0000e+00 -1.0000e+00
       -2 -1    0    0    0  501 -0.0000000000e+00 -0.0000000000e+00 -4.1305210189e+01 4.1305210189e+01 0.0000000000e+00 0.0000e+00 1.0000e+00
       23  1    1    2    0    0 +0.0000000000e+00 +0.0000000000e+00 +9.0228919190e+00 9.1633312297e+01 9.1188000000e+01 0.0000e+00 -1.0000e+00
<mgrwt>
<rscale>  0 0.91188000E+02</rscale>
<asrwt>0</asrwt>
<pdfrwt beam="1">  1        2 0.77427850E-02 0.91188000E+02</pdfrwt>
<pdfrwt beam="2">  1       -2 0.63546477E-02 0.91188000E+02</pdfrwt>
<totfact> 0.10121485E+05</totfact>
</mgrwt>
</event>
<event>
 3      1 +4.2044000e+04 9.11880000e+01 7.54677100e-03 1.30000000e-01
        2 -1    0    0  501    0 +0.0000000000e+00 +0.0000000000e+00 +7.5383147309e+01 7.5383147309e+01 0.0000000000e+00 0.0000e+00 -1.0000e+00
       -2 -1    0    0    0  501 -0.0000000000e+00 -0.0000000000e+00 -2.7576625681e+01 2.7576625681e+01 0.0000000000e+00 0.0000e+00 1.0000e+00
       23  1    1    2    0    0 +0.0000000000e+00 +0.0000000000e+00 +4.7806521628e+01 1.0295977299e+02 9.1188000000e+01 0.0000e+00 -1.0000e+00
<mgrwt>
<rscale>  0 0.91188000E+02</rscale>
<asrwt>0</asrwt>
<pdfrwt beam="1">  1        2 0.11597407E-01 0.91188000E+02</pdfrwt>
<pdfrwt beam="2">  1       -2 0.42425578E-02 0.91188000E+02</pdfrwt>
<totfact> 0.11289526E+05</totfact>
</mgrwt>
</event>
<event>
 3      1 +4.2044000e+04 9.11880000e+01 7.54677100e-03 1.30000000e-01
       -3 -1    0    0    0  501 -0.0000000000e+00 +0.0000000000e+00 +2.1733702140e+02 2.1733702140e+02 0.0000000000e+00 0.0000e+00 1.0000e+00
        3 -1    0    0  501    0 +0.0000000000e+00 -0.0000000000e+00 -9.5649274227e+00 9.5649274227e+00 0.0000000000e+00 0.0000e+00 -1.0000e+00
       23  1    1    2    0    0 +0.0000000000e+00 -0.0000000000e+00 +2.0777209398e+02 2.2690194883e+02 9.1188000000e+01 0.0000e+00 1.0000e+00
<mgrwt>
<rscale>  0 0.91188000E+02</rscale>
<asrwt>0</asrwt>
<pdfrwt beam="2">  1        3 0.14715275E-02 0.91188000E+02</pdfrwt>
<pdfrwt beam="1">  1       -3 0.33436461E-01 0.91188000E+02</pdfrwt>
<totfact> 0.27153223E+04</totfact>
</mgrwt>
</event>
<event>
 3      1 +4.2044000e+04 9.11880000e+01 7.54677100e-03 1.30000000e-01
       -2 -1    0    0    0  501 -0.0000000000e+00 +0.0000000000e+00 +8.8363553661e+00 8.8363553661e+00 0.0000000000e+00 0.0000e+00 1.0000e+00
        2 -1    0    0  501    0 +0.0000000000e+00 -0.0000000000e+00 -2.3525681685e+02 2.3525681685e+02 0.0000000000e+00 0.0000e+00 -1.0000e+00
       23  1    1    2    0    0 +0.0000000000e+00 -0.0000000000e+00 -2.2642046148e+02 2.4409317222e+02 9.1188000000e+01 0.0000e+00 1.0000e+00
<mgrwt>
<rscale>  0 0.91188000E+02</rscale>
<asrwt>0</asrwt>
<pdfrwt beam="2">  1        2 0.36193357E-01 0.91188000E+02</pdfrwt>
<pdfrwt beam="1">  1       -2 0.13594393E-02 0.91188000E+02</pdfrwt>
<totfact> 0.16408038E+05</totfact>
</mgrwt>
</event>
<event>
 3      1 +4.2044000e+04 9.11880000e+01 7.54677100e-03 1.30000000e-01
       -2 -1    0    0    0  501 -0.0000000000e+00 +0.0000000000e+00 +2.8203222701e+01 2.8203222701e+01 0.0000000000e+00 0.0000e+00 1.0000e+00
        2 -1    0    0  501    0 +0.0000000000e+00 -0.0000000000e+00 -7.3708343833e+01 7.3708343833e+01 0.0000000000e+00 0.0000e+00 -1.0000e+00
       23  1    1    2    0    0 +0.0000000000e+00 -0.0000000000e+00 -4.5505121132e+01 1.0191156653e+02 9.1188000000e+01 0.0000e+00 1.0000e+00
<mgrwt>
<rscale>  0 0.91188000E+02</rscale>
<asrwt>0</asrwt>
<pdfrwt beam="2">  1        2 0.11339745E-01 0.91188000E+02</pdfrwt>
<pdfrwt beam="1">  1       -2 0.43389575E-02 0.91188000E+02</pdfrwt>
<totfact> 0.11218419E+05</totfact>
</mgrwt>
</event>
<event>
 3      1 +4.2044000e+04 9.11880000e+01 7.54677100e-03 1.30000000e-01
       -3 -1    0    0    0  501 -0.0000000000e+00 +0.0000000000e+00 +3.0619337603e+01 3.0619337603e+01 0.0000000000e+00 0.0000e+00 1.0000e+00
        3 -1    0    0  501    0 +0.0000000000e+00 -0.0000000000e+00 -6.7892155702e+01 6.7892155702e+01 0.0000000000e+00 0.0000e+00 -1.0000e+00
       23  1    1    2    0    0 +0.0000000000e+00 -0.0000000000e+00 -3.7272818099e+01 9.8511493304e+01 9.1188000000e+01 0.0000e+00 1.0000e+00
<mgrwt>
<rscale>  0 0.91188000E+02</rscale>
<asrwt>0</asrwt>
<pdfrwt beam="2">  1        3 0.10444947E-01 0.91188000E+02</pdfrwt>
<pdfrwt beam="1">  1       -3 0.47106673E-02 0.91188000E+02</pdfrwt>
<totfact> 0.34770122E+04</totfact>
</mgrwt>
</event>
<event>
 3      1 +4.2044000e+04 9.11880000e+01 7.54677100e-03 1.30000000e-01
       -1 -1    0    0    0  501 -0.0000000000e+00 +0.0000000000e+00 +1.0881449060e+00 1.0881449060e+00 0.0000000000e+00 0.0000e+00 1.0000e+00
        1 -1    0    0  501    0 +0.0000000000e+00 -0.0000000000e+00 -1.9104191221e+03 1.9104191221e+03 0.0000000000e+00 0.0000e+00 -1.0000e+00
       23  1    1    2    0    0 +0.0000000000e+00 -0.0000000000e+00 -1.9093309772e+03 1.9115072670e+03 9.1188000000e+01 0.0000e+00 1.0000e+00
<mgrwt>
<rscale>  0 0.91188000E+02</rscale>
<asrwt>0</asrwt>
<pdfrwt beam="2">  1        1 0.29391273E+00 0.91188000E+02</pdfrwt>
<pdfrwt beam="1">  1       -1 0.16740572E-03 0.91188000E+02</pdfrwt>
<totfact> 0.85138250E+04</totfact>
</mgrwt>
</event>
<event>
 3      1 +4.2044000e+04 9.11880000e+01 7.54677100e-03 1.30000000e-01
        1 -1    0    0  501    0 +0.0000000000e+00 +0.0000000000e+00 +4.0933923521e+01 4.0933923521e+01 0.0000000000e+00 0.0000e+00 -1.0000e+00
       -1 -1    0    0    0  501 -0.0000000000e+00 -0.0000000000e+00 -5.0784597644e+01 5.0784597644e+01 0.0000000000e+00 0.0000e+00 1.0000e+00
       23  1    1    2    0    0 +0.0000000000e+00 +0.0000000000e+00 -9.8506741230e+00 9.1718521165e+01 9.1188000000e+01 0.0000e+00 -1.0000e+00
<mgrwt>
<rscale>  0 0.91188000E+02</rscale>
<asrwt>0</asrwt>
<pdfrwt beam="1">  1        1 0.62975267E-02 0.91188000E+02</pdfrwt>
<pdfrwt beam="2">  1       -1 0.78130150E-02 0.91188000E+02</pdfrwt>
<totfact> 0.90950398E+04</totfact>
</mgrwt>
</event>
<event>
 3      1 +4.2044000e+04 9.11880000e+01 7.54677100e-03 1.30000000e-01
       -2 -1    0    0    0  501 -0.0000000000e+00 +0.0000000000e+00 +6.5391221326e+00 6.5391221326e+00 0.0000000000e+00 0.0000e+00 1.0000e+00
        2 -1    0    0  501    0 +0.0000000000e+00 -0.0000000000e+00 -3.1790396231e+02 3.1790396231e+02 0.0000000000e+00 0.0000e+00 -1.0000e+00
       23  1    1    2    0    0 +0.0000000000e+00 -0.0000000000e+00 -3.1136484018e+02 3.2444308445e+02 9.1188000000e+01 0.0000e+00 1.0000e+00
<mgrwt>
<rscale>  0 0.91188000E+02</rscale>
<asrwt>0</asrwt>
<pdfrwt beam="2">  1        2 0.48908295E-01 0.91188000E+02</pdfrwt>
<pdfrwt beam="1">  1       -2 0.10060189E-02 0.91188000E+02</pdfrwt>
<totfact> 0.18351248E+05</totfact>
</mgrwt>
</event>
<event>
 3      1 +4.2044000e+04 9.11880000e+01 7.54677100e-03 1.30000000e-01
       -2 -1    0    0    0  501 -0.0000000000e+00 +0.0000000000e+00 +4.6517795914e+01 4.6517795914e+01 0.0000000000e+00 0.0000e+00 1.0000e+00
        2 -1    0    0  501    0 +0.0000000000e+00 -0.0000000000e+00 -4.4688549730e+01 4.4688549730e+01 0.0000000000e+00 0.0000e+00 -1.0000e+00
       23  1    1    2    0    0 +0.0000000000e+00 -0.0000000000e+00 +1.8292461842e+00 9.1206345643e+01 9.1188000000e+01 0.0000e+00 1.0000e+00
<mgrwt>
<rscale>  0 0.91188000E+02</rscale>
<asrwt>0</asrwt>
<pdfrwt beam="2">  1        2 0.68751615E-02 0.91188000E+02</pdfrwt>
<pdfrwt beam="1">  1       -2 0.71565840E-02 0.91188000E+02</pdfrwt>
<totfact> 0.98131016E+04</totfact>
</mgrwt>
</event>
<event>
 3      1 +4.2044000e+04 9.11880000e+01 7.54677100e-03 1.30000000e-01
       -4 -1    0    0    0  501 -0.0000000000e+00 +0.0000000000e+00 +2.3670804378e+01 2.3670804378e+01 0.0000000000e+00 0.0000e+00 1.0000e+00
        4 -1    0    0  501    0 +0.0000000000e+00 -0.0000000000e+00 -8.7821807945e+01 8.7821807945e+01 0.0000000000e+00 0.0000e+00 -1.0000e+00
       23  1    1    2    0    0 +0.0000000000e+00 -0.0000000000e+00 -6.4151003567e+01 1.1149261232e+02 9.1188000000e+01 0.0000e+00 1.0000e+00
<mgrwt>
<rscale>  0 0.91188000E+02</rscale>
<asrwt>0</asrwt>
<pdfrwt beam="2">  1        4 0.13511047E-01 0.91188000E+02</pdfrwt>
<pdfrwt beam="1">  1       -4 0.36416623E-02 0.91188000E+02</pdfrwt>
<totfact> 0.25755917E+04</totfact>
</mgrwt>
</event>
<event>
 3      1 +4.2044000e+04 9.11880000e+01 7.54677100e-03 1.30000000e-01
       -2 -1    0    0    0  501 -0.0000000000e+00 +0.0000000000e+00 +2.2204860007e+02 2.2204860007e+02 0.0000000000e+00 0.0000e+00 1.0000e+00
        2 -1    0    0  501    0 +0.0000000000e+00 -0.0000000000e+00 -9.3619722681e+00 9.3619722681e+00 0.0000000000e+00 0.0000e+00 -1.0000e+00
       23  1    1    2    0    0 +0.0000000000e+00 -0.0000000000e+00 +2.1268662780e+02 2.3141057234e+02 9.1188000000e+01 0.0000e+00 1.0000e+00
<mgrwt>
<rscale>  0 0.91188000E+02</rscale>
<asrwt>0</asrwt>
<pdfrwt beam="2">  1        2 0.14403036E-02 0.91188000E+02</pdfrwt>
<pdfrwt beam="1">  1       -2 0.34161319E-01 0.91188000E+02</pdfrwt>
<totfact> 0.59451438E+04</totfact>
</mgrwt>
</event>
<event>
 3      1 +4.2044000e+04 9.11880000e+01 7.54677100e-03 1.30000000e-01
        2 -1    0    0  501    0 +0.0000000000e+00 +0.0000000000e+00 +9.1229996222e+00 9.1229996222e+00 0.0000000000e+00 0.0000e+00 -1.0000e+00
       -2 -1    0    0    0  501 -0.0000000000e+00 -0.0000000000e+00 -2.2786505778e+02 2.2786505778e+02 0.0000000000e+00 0.0000e+00 1.0000e+00
       23  1    1    2    0    0 +0.0000000000e+00 +0.0000000000e+00 -2.1874205815e+02 2.3698805740e+02 9.1188000000e+01 0.0000e+00 -1.0000e+00
<mgrwt>
<rscale>  0 0.91188000E+02</rscale>
<asrwt>0</asrwt>
<pdfrwt beam="1">  1        2 0.14035385E-02 0.91188000E+02</pdfrwt>
<pdfrwt beam="2">  1       -2 0.35056160E-01 0.91188000E+02</pdfrwt>
<totfact> 0.58739040E+04</totfact>
</mgrwt>
</event>
<event>
 3      1 +4.2044000e+04 9.11880000e+01 7.54677100e-03 1.30000000e-01
        3 -1    0    0  501    0 +0.0000000000e+00 +0.0000000000e+00 +1.1624274228e+00 1.1624274228e+00 0.0000000000e+00 0.0000e+00 1.0000e+00
       -3 -1    0    0    0  501 -0.0000000000e+00 -0.0000000000e+00 -1.7883377449e+03 1.7883377449e+03 0.0000000000e+00 0.0000e+00 -1.0000e+00
       23  1    1    2    0    0 +0.0000000000e+00 +0.0000000000e+00 -1.7871753175e+03 1.7895001724e+03 9.1188000000e+01 0.0000e+00 1.0000e+00
<mgrwt>
<rscale>  0 0.91188000E+02</rscale>
<asrwt>0</asrwt>
<pdfrwt beam="1">  1        3 0.17883447E-03 0.91188000E+02</pdfrwt>
<pdfrwt beam="2">  1       -3 0.27512969E+00 0.91188000E+02</pdfrwt>
<totfact> 0.45176028E+03</totfact>
</mgrwt>
</event>
<event>
 3      1 +4.2044000e+04 9.11880000e+01 7.54677100e-03 1.30000000e-01
       -1 -1    0    0    0  501 -0.0000000000e+00 +0.0000000000e+00 +1.1720383264e+00 1.1720383264e+00 0.0000000000e+00 0.0000e+00 1.0000e+00
        1 -1    0    0  501    0 +0.0000000000e+00 -0.0000000000e+00 -1.7736730866e+03 1.7736730866e+03 0.0000000000e+00 0.0000e+00 -1.0000e+00
       23  1    1    2    0    0 +0.0000000000e+00 -0.0000000000e+00 -1.7725010483e+03 1.7748451249e+03 9.1188000000e+01 0.0000e+00 1.0000e+00
<mgrwt>
<rscale>  0 0.91188000E+02</rscale>
<asrwt>0</asrwt>
<pdfrwt beam="2">  1        1 0.27287387E+00 0.91188000E+02</pdfrwt>
<pdfrwt beam="1">  1       -1 0.18031287E-03 0.91188000E+02</pdfrwt>
<totfact> 0.93582463E+04</totfact>
</mgrwt>
</event>
<event>
 3      1 +4.2044000e+04 9.11880000e+01 7.54677100e-03 1.30000000e-01
       -3 -1    0    0    0  501 -0.0000000000e+00 +0.0000000000e+00 +1.6889071084e+02 1.6889071084e+02 0.0000000000e+00 0.0000e+00 1.0000e+00
        3 -1    0    0  501    0 +0.0000000000e+00 -0.0000000000e+00 -1.2308627429e+01 1.2308627429e+01 0.0000000000e+00 0.0000e+00 -1.0000e+00
       23  1    1    2    0    0 +0.0000000000e+00 -0.0000000000e+00 +1.5658208341e+02 1.8119933827e+02 9.1188000000e+01 0.0000e+00 1.0000e+00
<mgrwt>
<rscale>  0 0.91188000E+02</rscale>
<asrwt>0</asrwt>
<pdfrwt beam="2">  1        3 0.18936351E-02 0.91188000E+02</pdfrwt>
<pdfrwt beam="1">  1       -3 0.25983185E-01 0.91188000E+02</pdfrwt>
<totfact> 0.29490141E+04</totfact>
</mgrwt>
</event>
<event>
 3      1 +4.2044000e+04 9.11880000e+01 7.54677100e-03 1.30000000e-01
        2 -1    0    0  501    0 +0.0000000000e+00 +0.0000000000e+00 +2.0645504201e+03 2.0645504201e+03 0.0000000000e+00 0.0000e+00 -1.0000e+00
       -2 -1    0    0    0  501 -0.0000000000e+00 -0.0000000000e+00 -1.0069082429e+00 1.0069082429e+00 0.0000000000e+00 0.0000e+00 1.0000e+00
       23  1    1    2    0    0 +0.0000000000e+00 +0.0000000000e+00 +2.0635435119e+03 2.0655573284e+03 9.1188000000e+01 0.0000e+00 -1.0000e+00
<mgrwt>
<rscale>  0 0.91188000E+02</rscale>
<asrwt>0</asrwt>
<pdfrwt beam="1">  1        2 0.31761975E+00 0.91188000E+02</pdfrwt>
<pdfrwt beam="2">  1       -2 0.15491061E-03 0.91188000E+02</pdfrwt>
<totfact> 0.19075229E+05</totfact>
</mgrwt>
</event>
<event>
 3      1 +4.2044000e+04 9.11880000e+01 7.54677100e-03 1.30000000e-01
        2 -1    0    0  501    0 +0.0000000000e+00 +0.0000000000e+00 +5.9776177248e+02 5.9776177248e+02 0.0000000000e+00 0.0000e+00 -1.0000e+00
       -2 -1    0    0    0  501 -0.0000000000e+00 -0.0000000000e+00 -3.4776610544e+00 3.4776610544e+00 0.0000000000e+00 0.0000e+00 1.0000e+00
       23  1    1    2    0    0 +0.0000000000e+00 +0.0000000000e+00 +5.9428411143e+02 6.0123943354e+02 9.1188000000e+01 0.0000e+00 -1.0000e+00
<mgrwt>
<rscale>  0 0.91188000E+02</rscale>
<asrwt>0</asrwt>
<pdfrwt beam="1">  1        2 0.91963268E-01 0.91188000E+02</pdfrwt>
<pdfrwt beam="2">  1       -2 0.53502525E-03 0.91188000E+02</pdfrwt>
<totfact> 0.22753449E+05</totfact>
</mgrwt>
</event>
<event>
 3      1 +4.2044000e+04 9.11880000e+01 7.54677100e-03 1.30000000e-01
        2 -1    0    0  501    0 +0.0000000000e+00 +0.0000000000e+00 +4.9559806787e+01 4.9559806787e+01 0.0000000000e+00 0.0000e+00 1.0000e+00
       -2 -1    0    0    0  501 -0.0000000000e+00 -0.0000000000e+00 -4.1945539557e+01 4.1945539557e+01 0.0000000000e+00 0.0000e+00 -1.0000e+00
       23  1    1    2    0    0 +0.0000000000e+00 +0.0000000000e+00 +7.6142672301e+00 9.1505346344e+01 9.1188000000e+01 0.0000e+00 1.0000e+00
<mgrwt>
<rscale>  0 0.91188000E+02</rscale>
<asrwt>0</asrwt>
<pdfrwt beam="1">  1        2 0.76245857E-02 0.91188000E+02</pdfrwt>
<pdfrwt beam="2">  1       -2 0.64531599E-02 0.91188000E+02</pdfrwt>
<totfact> 0.10080853E+05</totfact>
</mgrwt>
</event>
<event>
 3      1 +4.2044000e+04 9.11880000e+01 7.54677100e-03 1.30000000e-01
       -1 -1    0    0    0  501 -0.0000000000e+00 +0.0000000000e+00 +1.2723426682e+00 1.2723426682e+00 0.0000000000e+00 0.0000e+00 1.0000e+00
        1 -1    0    0  501    0 +0.0000000000e+00 -0.0000000000e+00 -1.6338466736e+03 1.6338466736e+03 0.0000000000e+00 0.0000e+00 -1.0000e+00
       23  1    1    2    0    0 +0.0000000000e+00 -0.0000000000e+00 -1.6325743309e+03 1.6351190162e+03 9.1188000000e+01 0.0000e+00 1.0000e+00
<mgrwt>
<rscale>  0 0.91188000E+02</rscale>
<asrwt>0</asrwt>
<pdfrwt beam="2">  1        1 0.25136064E+00 0.91188000E+02</pdfrwt>
<pdfrwt beam="1">  1       -1 0.19574532E-03 0.91188000E+02</pdfrwt>
<totfact> 0.10227598E+05</totfact>
</mgrwt>
</event>
<event>
 3      1 +4.2044000e+04 9.11880000e+01 7.54677100e-03 1.30000000e-01
        1 -1    0    0  501    0 +0.0000000000e+00 +0.0000000000e+00 +1.2469664514e+02 1.2469664514e+02 0.0000000000e+00 0.0000e+00 -1.0000e+00
       -1 -1    0    0    0  501 -0.0000000000e+00 -0.0000000000e+00 -1.6670960423e+01 1.6670960423e+01 0.0000000000e+00 0.0000e+00 1.0000e+00
       23  1    1    2    0    0 +0.0000000000e+00 +0.0000000000e+00 +1.0802568472e+02 1.4136760557e+02 9.1188000000e+01 0.0000e+00 -1.0000e+00
<mgrwt>
<rscale>  0 0.91188000E+02</rscale>
<asrwt>0</asrwt>
<pdfrwt beam="1">  1        1 0.19184099E-01 0.91188000E+02</pdfrwt>
<pdfrwt beam="2">  1       -1 0.25647632E-02 0.91188000E+02</pdfrwt>
<totfact> 0.10842884E+05</totfact>
</mgrwt>
</event>
<event>
 3      1 +4.2044000e+04 9.11880000e+01 7.54677100e-03 1.30000000e-01
       -2 -1    0    0    0  501 -0.0000000000e+00 +0.0000000000e+00 +1.3448217386e+00 1.3448217386e+00 0.0000000000e+00 0.0000e+00 -1.0000e+00
        2 -1    0    0  501    0 +0.0000000000e+00 -0.0000000000e+00 -1.5457906251e+03 1.5457906251e+03 0.0000000000e+00 0.0000e+00 1.0000e+00
       23  1    1    2    0    0 +0.0000000000e+00 -0.0000000000e+00 -1.5444458034e+03 1.5471354469e+03 9.1188000000e+01 0.0000e+00 -1.0000e+00
<mgrwt>
<rscale>  0 0.91188000E+02</rscale>
<asrwt>0</asrwt>
<pdfrwt beam="2">  1        2 0.23781276E+00 0.91188000E+02</pdfrwt>
<pdfrwt beam="1">  1       -2 0.20689668E-03 0.91188000E+02</pdfrwt>
<totfact> 0.23306406E+05</totfact>
</mgrwt>
</event>
<event>
 3      1 +4.2044000e+04 9.11880000e+01 7.54677100e-03 1.30000000e-01
       -2 -1    0    0    0  501 -0.0000000000e+00 +0.0000000000e+00 +1.5213158441e+00 1.5213158441e+00 0.0000000000e+00 0.0000e+00 -1.0000e+00
        2 -1    0    0  501    0 +0.0000000000e+00 -0.0000000000e+00 -1.3664570996e+03 1.3664570996e+03 0.0000000000e+00 0.0000e+00 1.0000e+00
       23  1    1    2    0    0 +0.0000000000e+00 -0.0000000000e+00 -1.3649357838e+03 1.3679784155e+03 9.1188000000e+01 0.0000e+00 -1.0000e+00
<mgrwt>
<rscale>  0 0.91188000E+02</rscale>
<asrwt>0</asrwt>
<pdfrwt beam="2">  1        2 0.21022451E+00 0.91188000E+02</pdfrwt>
<pdfrwt beam="1">  1       -2 0.23404821E-03 0.91188000E+02</pdfrwt>
<totfact> 0.24289569E+05</totfact>
</mgrwt>
</event>
<event>
 3      1 +4.2044000e+04 9.11880000e+01 7.54677100e-03 1.30000000e-01
        1 -1    0    0  501    0 +0.0000000000e+00 +0.0000000000e+00 +1.6612208057e+03 1.6612208057e+03 0.0000000000e+00 0.0000e+00 -1.0000e+00
       -1 -1    0    0    0  501 -0.0000000000e+00 -0.0000000000e+00 -1.2513765954e+00 1.2513765954e+00 0.0000000000e+00 0.0000e+00 1.0000e+00
       23  1    1    2    0    0 +0.0000000000e+00 +0.0000000000e+00 +1.6599694291e+03 1.6624721823e+03 9.1188000000e+01 0.0000e+00 -1.0000e+00
<mgrwt>
<rscale>  0 0.91188000E+02</rscale>
<asrwt>0</asrwt>
<pdfrwt beam="1">  1        1 0.25557067E+00 0.91188000E+02</pdfrwt>
<pdfrwt beam="2">  1       -1 0.19252081E-03 0.91188000E+02</pdfrwt>
<totfact> 0.10057862E+05</totfact>
</mgrwt>
</event>
<event>
 3      1 +4.2044000e+04 9.11880000e+01 7.54677100e-03 1.30000000e-01
       -1 -1    0    0    0  501 -0.0000000000e+00 +0.0000000000e+00 +1.3495979199e+02 1.3495979199e+02 0.0000000000e+00 0.0000e+00 1.0000e+00
        1 -1    0    0  501    0 +0.0000000000e+00 -0.0000000000e+00 -1.5403201245e+01 1.5403201245e+01 0.0000000000e+00 0.0000e+00 -1.0000e+00
       23  1    1    2    0    0 +0.0000000000e+00 -0.0000000000e+00 +1.1955659074e+02 1.5036299323e+02 9.1188000000e+01 0.0000e+00 1.0000e+00
<mgrwt>
<rscale>  0 0.91188000E+02</rscale>
<asrwt>0</asrwt>
<pdfrwt beam="2">  1        1 0.23697234E-02 0.91188000E+02</pdfrwt>
<pdfrwt beam="1">  1       -1 0.20763044E-01 0.91188000E+02</pdfrwt>
<totfact> 0.76576014E+04</totfact>
</mgrwt>
</event>
<event>
 3      1 +4.2044000e+04 9.11880000e+01 7.54677100e-03 1.30000000e-01
       -3 -1    0    0    0  501 -0.0000000000e+00 +0.0000000000e+00 +8.8945497553e+01 8.8945497553e+01 0.0000000000e+00 0.0000e+00 1.0000e+00
        3 -1    0    0  501    0 +0.0000000000e+00 -0.0000000000e+00 -2.3371760159e+01 2.3371760159e+01 0.0000000000e+00 0.0000e+00 -1.0000e+00
       23  1    1    2    0    0 +0.0000000000e+00 -0.0000000000e+00 +6.5573737395e+01 1.1231725771e+02 9.1188000000e+01 0.0000e+00 1.0000e+00
<mgrwt>
<rscale>  0 0.91188000E+02</rscale>
<asrwt>0</asrwt>
<pdfrwt beam="2">  1        3 0.35956555E-02 0.91188000E+02</pdfrwt>
<pdfrwt beam="1">  1       -3 0.13683923E-01 0.91188000E+02</pdfrwt>
<totfact> 0.33770680E+04</totfact>
</mgrwt>
</event>
<event>
 3      1 +4.2044000e+04 9.11880000e+01 7.54677100e-03 1.30000000e-01
        2 -1    0    0  501    0 +0.0000000000e+00 +0.0000000000e+00 +5.8077758515e+02 5.8077758515e+02 0.0000000000e+00 0.0000e+00 -1.0000e+00
       -2 -1    0    0    0  501 -0.0000000000e+00 -0.0000000000e+00 -3.5793613410e+00 3.5793613410e+00 0.0000000000e+00 0.0000e+00 1.0000e+00
       23  1    1    2    0    0 +0.0000000000e+00 +0.0000000000e+00 +5.7719822380e+02 5.8435694649e+02 9.1188000000e+01 0.0000e+00 -1.0000e+00
<mgrwt>
<rscale>  0 0.91188000E+02</rscale>
<asrwt>0</asrwt>
<pdfrwt beam="1">  1        2 0.89350323E-01 0.91188000E+02</pdfrwt>
<pdfrwt beam="2">  1       -2 0.55067144E-03 0.91188000E+02</pdfrwt>
<totfact> 0.22565068E+05</totfact>
</mgrwt>
</event>
<event>
 3      1 +4.2044000e+04 9.11880000e+01 7.54677100e-03 1.30000000e-01
       -2 -1    0    0    0  501 -0.0000000000e+00 +0.0000000000e+00 +5.1349925907e+01 5.1349925907e+01 0.0000000000e+00 0.0000e+00 1.0000e+00
        2 -1    0    0  501    0 +0.0000000000e+00 -0.0000000000e+00 -4.0483268462e+01 4.0483268462e+01 0.0000000000e+00 0.0000e+00 -1.0000e+00
       23  1    1    2    0    0 +0.0000000000e+00 -0.0000000000e+00 +1.0866657444e+01 9.1833194369e+01 9.1188000000e+01 0.0000e+00 1.0000e+00
<mgrwt>
<rscale>  0 0.91188000E+02</rscale>
<asrwt>0</asrwt>
<pdfrwt beam="2">  1        2 0.62281951E-02 0.91188000E+02</pdfrwt>
<pdfrwt beam="1">  1       -2 0.78999886E-02 0.91188000E+02</pdfrwt>
<totfact> 0.95651457E+04</totfact>
</mgrwt>
</event>
<event>
 3      1 +4.2044000e+04 9.11880000e+01 7.54677100e-03 1.30000000e-01
        2 -1    0    0  501    0 +0.0000000000e+00 +0.0000000000e+00 +8.1283204417e+02 8.1283204417e+02 0.0000000000e+00 0.0000e+00 -1.0000e+00
       -2 -1    0    0    0  501 -0.0000000000e+00 -0.0000000000e+00 -2.5574937048e+00 2.5574937048e+00 0.0000000000e+00 0.0000e+00 1.0000e+00
       23  1    1    2    0    0 +0.0000000000e+00 +0.0000000000e+00 +8.1027455047e+02 8.1538953788e+02 9.1188000000e+01 0.0000e+00 -1.0000e+00
<mgrwt>
<rscale>  0 0.91188000E+02</rscale>
<asrwt>0</asrwt>
<pdfrwt beam="1">  1        2 0.12505088E+00 0.91188000E+02</pdfrwt>
<pdfrwt beam="2">  1       -2 0.39346122E-03 0.91188000E+02</pdfrwt>
<totfact> 0.24432777E+05</totfact>
</mgrwt>
</event>
<event>
 3      1 +4.2044000e+04 9.11880000e+01 7.54677100e-03 1.30000000e-01
       -2 -1    0    0    0  501 -0.0000000000e+00 +0.0000000000e+00 +6.2810721234e+01 6.2810721234e+01 0.0000000000e+00 0.0000e+00 1.0000e+00
        2 -1    0    0  501    0 +0.0000000000e+00 -0.0000000000e+00 -3.3096464985e+01 3.3096464985e+01 0.0000000000e+00 0.0000e+00 -1.0000e+00
       23  1    1    2    0    0 +0.0000000000e+00 -0.0000000000e+00 +2.9714256249e+01 9.5907186219e+01 9.1188000000e+01 0.0000e+00 1.0000e+00
<mgrwt>
<rscale>  0 0.91188000E+02</rscale>
<asrwt>0</asrwt>
<pdfrwt beam="2">  1        2 0.50917639E-02 0.91188000E+02</pdfrwt>
<pdfrwt beam="1">  1       -2 0.96631879E-02 0.91188000E+02</pdfrwt>
<totfact> 0.90764760E+04</totfact>
</mgrwt>
</event>
<event>
 3      1 +4.2044000e+04 9.11880000e+01 7.54677100e-03 1.30000000e-01
       -2 -1    0    0    0  501 -0.0000000000e+00 +0.0000000000e+00 +1.4679040556e+00 1.4679040556e+00 0.0000000000e+00 0.0000e+00 1.0000e+00
        2 -1    0    0  501    0 +0.0000000000e+00 -0.0000000000e+00 -1.4161775956e+03 1.4161775956e+03 0.0000000000e+00 0.0000e+00 -1.0000e+00
       23  1    1    2    0    0 +0.0000000000e+00 -0.0000000000e+00 -1.4147096915e+03 1.4176454996e+03 9.1188000000e+01 0.0000e+00 1.0000e+00
<mgrwt>
<rscale>  0 0.91188000E+02</rscale>
<asrwt>0</asrwt>
<pdfrwt beam="2">  1        2 0.21787402E+00 0.91188000E+02</pdfrwt>
<pdfrwt beam="1">  1       -2 0.22583083E-03 0.91188000E+02</pdfrwt>
<totfact> 0.24051524E+05</totfact>
</mgrwt>
</event>
<event>
 3      1 +4.2044000e+04 9.11880000e+01 7.54677100e-03 1.30000000e-01
        2 -1    0    0  501    0 +0.0000000000e+00 +0.0000000000e+00 +9.0653130266e-01 9.0653130266e-01 0.0000000000e+00 0.0000e+00 -1.0000e+00
       -2 -1    0    0    0  501 -0.0000000000e+00 -0.0000000000e+00 -2.2931506390e+03 2.2931506390e+03 0.0000000000e+00 0.0000e+00 1.0000e+00
       23  1    1    2    0    0 +0.0000000000e+00 +0.0000000000e+00 -2.2922441077e+03 2.2940571703e+03 9.1188000000e+01 0.0000e+00 -1.0000e+00
<mgrwt>
<rscale>  0 0.91188000E+02</rscale>
<asrwt>0</asrwt>
<pdfrwt beam="1">  1        2 0.13946777E-03 0.91188000E+02</pdfrwt>
<pdfrwt beam="2">  1       -2 0.35278882E+00 0.91188000E+02</pdfrwt>
<totfact> 0.38244706E+03</totfact>
</mgrwt>
</event>
<event>
 3      1 +4.2044000e+04 9.11880000e+01 7.54677100e-03 1.30000000e-01
        3 -1    0    0  501    0 +0.0000000000e+00 +0.0000000000e+00 +2.4789541889e+01 2.4789541889e+01 0.0000000000e+00 0.0000e+00 -1.0000e+00
       -3 -1    0    0    0  501 -0.0000000000e+00 -0.0000000000e+00 -8.3858461173e+01 8.3858461173e+01 0.0000000000e+00 0.0000e+00 1.0000e+00
       23  1    1    2    0    0 +0.0000000000e+00 +0.0000000000e+00 -5.9068919283e+01 1.0864800306e+02 9.1188000000e+01 0.0000e+00 -1.0000e+00
<mgrwt>
<rscale>  0 0.91188000E+02</rscale>
<asrwt>0</asrwt>
<pdfrwt beam="1">  1        3 0.38137758E-02 0.91188000E+02</pdfrwt>
<pdfrwt beam="2">  1       -3 0.12901301E-01 0.91188000E+02</pdfrwt>
<totfact> 0.34031768E+04</totfact>
</mgrwt>
</event>
<event>
 3      1 +4.2044000e+04 9.11880000e+01 7.54677100e-03 1.30000000e-01
        2 -1    0    0  501    0 +0.0000000000e+00 +0.0000000000e+00 +1.0500684758e+03 1.0500684758e+03 0.0000000000e+00 0.0000e+00 -1.0000e+00
       -2 -1    0    0    0  501 -0.0000000000e+00 -0.0000000000e+00 -1.9796926429e+00 1.9796926429e+00 0.0000000000e+00 0.0000e+00 1.0000e+00
       23  1    1    2    0    0 +0.0000000000e+00 +0.0000000000e+00 +1.0480887831e+03 1.0520481684e+03 9.1188000000e+01 0.0000e+00 -1.0000e+00
<mgrwt>
<rscale>  0 0.91188000E+02</rscale>
<asrwt>0</asrwt>
<pdfrwt beam="1">  1        2 0.16154855E+00 0.91188000E+02</pdfrwt>
<pdfrwt beam="2">  1       -2 0.30456894E-03 0.91188000E+02</pdfrwt>
<totfact> 0.25024476E+05</totfact>
</mgrwt>
</event>
<event>
 3      1 +4.2044000e+04 9.11880000e+01 7.54677100e-03 1.30000000e-01
        3 -1    0    0  501    0 +0.0000000000e+00 +0.0000000000e+00 +1.4095143626e+02 1.4095143626e+02 0.0000000000e+00 0.0000e+00 -1.0000e+00
       -3 -1    0    0    0  501 -0.0000000000e+00 -0.0000000000e+00 -1.4748433157e+01 1.4748433157e+01 0.0000000000e+00 0.0000e+00 1.0000e+00
       23  1    1    2    0    0 +0.0000000000e+00 +0.0000000000e+00 +1.2620300310e+02 1.5569986942e+02 9.1188000000e+01 0.0000e+00 -1.0000e+00
<mgrwt>
<rscale>  0 0.91188000E+02</rscale>
<asrwt>0</asrwt>
<pdfrwt beam="1">  1        3 0.21684835E-01 0.91188000E+02</pdfrwt>
<pdfrwt beam="2">  1       -3 0.22689898E-02 0.91188000E+02</pdfrwt>
<totfact> 0.30951655E+04</totfact>
</mgrwt>
</event>
<event>
 3      1 +4.2044000e+04 9.11880000e+01 7.54677100e-03 1.30000000e-01
       -2 -1    0    0    0  501 -0.0000000000e+00 +0.0000000000e+00 +2.9968496314e+02 2.9968496314e+02 0.0000000000e+00 0.0000e+00 -1.0000e+00
        2 -1    0    0  501    0 +0.0000000000e+00 -0.0000000000e+00 -6.9366604658e+00 6.9366604658e+00 0.0000000000e+00 0.0000e+00 1.0000e+00
       23  1    1    2    0    0 +0.0000000000e+00 -0.0000000000e+00 +2.9274830267e+02 3.0662162360e+02 9.1188000000e+01 0.0000e+00 -1.0000e+00
<mgrwt>
<rscale>  0 0.91188000E+02</rscale>
<asrwt>0</asrwt>
<pdfrwt beam="2">  1        2 0.10671788E-02 0.91188000E+02</pdfrwt>
<pdfrwt beam="1">  1       -2 0.46105369E-01 0.91188000E+02</pdfrwt>
<totfact> 0.51015348E+04</totfact>
</mgrwt>
</event>
<event>
 3      1 +4.2044000e+04 9.11880000e+01 7.54677100e-03 1.30000000e-01
        3 -1    0    0  501    0 +0.0000000000e+00 +0.0000000000e+00 +1.3471230491e+02 1.3471230491e+02 0.0000000000e+00 0.0000e+00 -1.0000e+00
       -3 -1    0    0    0  501 -0.0000000000e+00 -0.0000000000e+00 -1.5431499278e+01 1.5431499278e+01 0.0000000000e+00 0.0000e+00 1.0000e+00
       23  1    1    2    0    0 +0.0000000000e+00 +0.0000000000e+00 +1.1928080563e+02 1.5014380419e+02 9.1188000000e+01 0.0000e+00 -1.0000e+00
<mgrwt>
<rscale>  0 0.91188000E+02</rscale>
<asrwt>0</asrwt>
<pdfrwt beam="1">  1        3 0.20724969E-01 0.91188000E+02</pdfrwt>
<pdfrwt beam="2">  1       -3 0.23740769E-02 0.91188000E+02</pdfrwt>
<totfact> 0.31287816E+04</totfact>
</mgrwt>
</event>
<event>
 3      1 +4.2044000e+04 9.11880000e+01 7.54677100e-03 1.30000000e-01
       -2 -1    0    0    0  501 -0.0000000000e+00 +0.0000000000e+00 +6.8464166593e+01 6.8464166593e+01 0.0000000000e+00 0.0000e+00 1.0000e+00
        2 -1    0    0  501    0 +0.0000000000e+00 -0.0000000000e+00 -3.0363516266e+01 3.0363516266e+01 0.0000000000e+00 0.0000e+00 -1.0000e+00
       23  1    1    2    0    0 +0.0000000000e+00 -0.0000000000e+00 +3.8100650327e+01 9.8827682859e+01 9.1188000000e+01 0.0000e+00 1.0000e+00
<mgrwt>
<rscale>  0 0.91188000E+02</rscale>
<asrwt>0</asrwt>
<pdfrwt beam="2">  1        2 0.46713102E-02 0.91188000E+02</pdfrwt>
<pdfrwt beam="1">  1       -2 0.10532949E-01 0.91188000E+02</pdfrwt>
<totfact> 0.88718446E+04</totfact>
</mgrwt>
</event>
<event>
 3      1 +4.2044000e+04 9.11880000e+01 7.54677100e-03 1.30000000e-01
       -1 -1    0    0    0  501 -0.0000000000e+00 +0.0000000000e+00 +1.8135382349e+00 1.8135382349e+00 0.0000000000e+00 0.0000e+00 1.0000e+00
        1 -1    0    0  501    0 +0.0000000000e+00 -0.0000000000e+00 -1.1462746117e+03 1.1462746117e+03 0.0000000000e+00 0.0000e+00 -1.0000e+00
       23  1    1    2    0    0 +0.0000000000e+00 -0.0000000000e+00 -1.1444610734e+03 1.1480881499e+03 9.1188000000e+01 0.0000e+00 1.0000e+00
<mgrwt>
<rscale>  0 0.91188000E+02</rscale>
<asrwt>0</asrwt>
<pdfrwt beam="2">  1        1 0.17634995E+00 0.91188000E+02</pdfrwt>
<pdfrwt beam="1">  1       -1 0.27900587E-03 0.91188000E+02</pdfrwt>
<totfact> 0.12985992E+05</totfact>
</mgrwt>
</event>
<event>
 3      1 +4.2044000e+04 9.11880000e+01 7.54677100e-03 1.30000000e-01
       -1 -1    0    0    0  501 -0.0000000000e+00 +0.0000000000e+00 +1.7966650150e+00 1.7966650150e+00 0.0000000000e+00 0.0000e+00 1.0000e+00
        1 -1    0    0  501    0 +0.0000000000e+00 -0.0000000000e+00 -1.1570397479e+03 1.1570397479e+03 0.0000000000e+00 0.0000e+00 -1.0000e+00
       23  1    1    2    0    0 +0.0000000000e+00 -0.0000000000e+00 -1.1552430829e+03 1.1588364129e+03 9.1188000000e+01 0.0000e+00 1.0000e+00
<mgrwt>
<rscale>  0 0.91188000E+02</rscale>
<asrwt>0</asrwt>
<pdfrwt beam="2">  1        1 0.17800637E+00 0.91188000E+02</pdfrwt>
<pdfrwt beam="1">  1       -1 0.27640960E-03 0.91188000E+02</pdfrwt>
<totfact> 0.12935242E+05</totfact>
</mgrwt>
</event>
<event>
 3      1 +4.2044000e+04 9.11880000e+01 7.54677100e-03 1.30000000e-01
        2 -1    0    0  501    0 +0.0000000000e+00 +0.0000000000e+00 +5.6954244555e+02 5.6954244555e+02 0.0000000000e+00 0.0000e+00 -1.0000e+00
       -2 -1    0    0    0  501 -0.0000000000e+00 -0.0000000000e+00 -3.6499699930e+00 3.6499699930e+00 0.0000000000e+00 0.0000e+00 1.0000e+00
       23  1    1    2    0    0 +0.0000000000e+00 +0.0000000000e+00 +5.6589247556e+02 5.7319241555e+02 9.1188000000e+01 0.0000e+00 -1.0000e+00
<mgrwt>
<rscale>  0 0.91188000E+02</rscale>
<asrwt>0</asrwt>
<pdfrwt beam="1">  1        2 0.87621844E-01 0.91188000E+02</pdfrwt>
<pdfrwt beam="2">  1       -2 0.56153430E-03 0.91188000E+02</pdfrwt>
<totfact> 0.22435462E+05</totfact>
</mgrwt>
</event>
<event>
 3      1 +4.2044000e+04 9.11880000e+01 7.54677100e-03 1.30000000e-01
       -4 -1    0    0    0  501 -0.0000000000e+00 +0.0000000000e+00 +5.5702524757e+01 5.5702524757e+01 0.0000000000e+00 0.0000e+00 1.0000e+00
        4 -1    0    0  501    0 +0.0000000000e+00 -0.0000000000e+00 -3.7319903273e+01 3.7319903273e+01 0.0000000000e+00 0.0000e+00 -1.0000e+00
       23  1    1    2    0    0 +0.0000000000e+00 -0.0000000000e+00 +1.8382621483e+01 9.3022428030e+01 9.1188000000e+01 0.0000e+00 1.0000e+00
<mgrwt>
<rscale>  0 0.91188000E+02</rscale>
<asrwt>0</asrwt>
<pdfrwt beam="2">  1        4 0.57415235E-02 0.91188000E+02</pdfrwt>
<pdfrwt beam="1">  1       -4 0.85696193E-02 0.91188000E+02</pdfrwt>
<totfact> 0.26889072E+04</totfact>
</mgrwt>
</event>
<event>
 3      1 +4.2044000e+04 9.11880000e+01 7.54677100e-03 1.30000000e-01
        2 -1    0    0  501    0 +0.0000000000e+00 +0.0000000000e+00 +3.2570330717e+02 3.2570330717e+02 0.0000000000e+00 0.0000e+00 -1.0000e+00
       -2 -1    0    0    0  501 -0.0000000000e+00 -0.0000000000e+00 -6.3825352407e+00 6.3825352407e+00 0.0000000000e+00 0.0000e+00 1.0000e+00
       23  1    1    2    0    0 +0.0000000000e+00 +0.0000000000e+00 +3.1932077193e+02 3.3208584241e+02 9.1188000000e+01 0.0000e+00 -1.0000e+00
<mgrwt>
<rscale>  0 0.91188000E+02</rscale>
<asrwt>0</asrwt>
<pdfrwt beam="1">  1        2 0.50108188E-01 0.91188000E+02</pdfrwt>
<pdfrwt beam="2">  1       -2 0.98192875E-03 0.91188000E+02</pdfrwt>
<totfact> 0.18516688E+05</totfact>
</mgrwt>
</event>
<event>
 3      1 +4.2044000e+04 9.11880000e+01 7.54677100e-03 1.30000000e-01
       -4 -1    0    0    0  501 -0.0000000000e+00 +0.0000000000e+00 +4.1195486320e+00 4.1195486320e+00 0.0000000000e+00 0.0000e+00 1.0000e+00
        4 -1    0    0  501    0 +0.0000000000e+00 -0.0000000000e+00 -5.0462150631e+02 5.0462150631e+02 0.0000000000e+00 0.0000e+00 -1.0000e+00
       23  1    1    2    0    0 +0.0000000000e+00 -0.0000000000e+00 -5.0050195768e+02 5.0874105494e+02 9.1188000000e+01 0.0000e+00 1.0000e+00
<mgrwt>
<rscale>  0 0.91188000E+02</rscale>
<asrwt>0</asrwt>
<pdfrwt beam="2">  1        4 0.77634092E-01 0.91188000E+02</pdfrwt>
<pdfrwt beam="1">  1       -4 0.63377660E-03 0.91188000E+02</pdfrwt>
<totfact> 0.12906084E+04</totfact>
</mgrwt>
</event>
<event>
 3      1 +4.2044000e+04 9.11880000e+01 7.54677100e-03 1.30000000e-01
       -2 -1    0    0    0  501 -0.0000000000e+00 +0.0000000000e+00 +7.5597157997e+01 7.5597157997e+01 0.0000000000e+00 0.0000e+00 -1.0000e+00
        2 -1    0    0  501    0 +0.0000000000e+00 -0.0000000000e+00 -2.7498558029e+01 2.7498558029e+01 0.0000000000e+00 0.0000e+00 1.0000e+00
       23  1    1    2    0    0 +0.0000000000e+00 -0.0000000000e+00 +4.8098599969e+01 1.0309571603e+02 9.1188000000e+01 0.0000e+00 -1.0000e+00
<mgrwt>
<rscale>  0 0.91188000E+02</rscale>
<asrwt>0</asrwt>
<pdfrwt beam="2">  1        2 0.42305474E-02 0.91188000E+02</pdfrwt>
<pdfrwt beam="1">  1       -2 0.11630332E-01 0.91188000E+02</pdfrwt>
<totfact> 0.86383419E+04</totfact>
</mgrwt>
</event>
<event>
 3      1 +4.2044000e+04 9.11880000e+01 7.54677100e-03 1.30000000e-01
       -2 -1    0    0    0  501 -0.0000000000e+00 +0.0000000000e+00 +1.2704026185e+00 1.2704026185e+00 0.0000000000e+00 0.0000e+00 1.0000e+00
        2 -1    0    0  501    0 +0.0000000000e+00 -0.0000000000e+00 -1.6363417437e+03 1.6363417437e+03 0.0000000000e+00 0.0000e+00 -1.0000e+00
       23  1    1    2    0    0 +0.0000000000e+00 -0.0000000000e+00 -1.6350713411e+03 1.6376121464e+03 9.1188000000e+01 0.0000e+00 1.0000e+00
<mgrwt>
<rscale>  0 0.91188000E+02</rscale>
<asrwt>0</asrwt>
<pdfrwt beam="2">  1        2 0.25174456E+00 0.91188000E+02</pdfrwt>
<pdfrwt beam="1">  1       -2 0.19544681E-03 0.91188000E+02</pdfrwt>
<totfact> 0.22692485E+05</totfact>
</mgrwt>
</event>
<event>
 3      1 +4.2044000e+04 9.11880000e+01 7.54677100e-03 1.30000000e-01
       -3 -1    0    0    0  501 -0.0000000000e+00 +0.0000000000e+00 +4.8268865484e+02 4.8268865484e+02 0.0000000000e+00 0.0000e+00 1.0000e+00
        3 -1    0    0  501    0 +0.0000000000e+00 -0.0000000000e+00 -4.3067364753e+00 4.3067364753e+00 0.0000000000e+00 0.0000e+00 -1.0000e+00
       23  1    1    2    0    0 +0.0000000000e+00 -0.0000000000e+00 +4.7838191837e+02 4.8699539132e+02 9.1188000000e+01 0.0000e+00 1.0000e+00
<mgrwt>
<rscale>  0 0.91188000E+02</rscale>
<asrwt>0</asrwt>
<pdfrwt beam="2">  1        3 0.66257522E-03 0.91188000E+02</pdfrwt>
<pdfrwt beam="1">  1       -3 0.74259750E-01 0.91188000E+02</pdfrwt>
<totfact> 0.18205025E+04</totfact>
</mgrwt>
</event>
<event>
 3      1 +4.2044000e+04 9.11880000e+01 7.54677100e-03 1.30000000e-01
       -2 -1    0    0    0  501 -0.0000000000e+00 +0.0000000000e+00 +3.4449426838e+00 3.4449426838e+00 0.0000000000e+00 0.0000e+00 1.0000e+00
        2 -1    0    0  501    0 +0.0000000000e+00 -0.0000000000e+00 -6.0343901970e+02 6.0343901970e+02 0.0000000000e+00 0.0000e+00 -1.0000e+00
       23  1    1    2    0    0 +0.0000000000e+00 -0.0000000000e+00 -5.9999407701e+02 6.0688396238e+02 9.1188000000e+01 0.0000e+00 1.0000e+00
<mgrwt>
<rscale>  0 0.91188000E+02</rscale>
<asrwt>0</asrwt>
<pdfrwt beam="2">  1        2 0.92836689E-01 0.91188000E+02</pdfrwt>
<pdfrwt beam="1">  1       -2 0.52999166E-03 0.91188000E+02</pdfrwt>
<totfact> 0.22814424E+05</totfact>
</mgrwt>
</event>
<event>
 3      1 +4.2044000e+04 9.11880000e+01 7.54677100e-03 1.30000000e-01
        2 -1    0    0  501    0 +0.0000000000e+00 +0.0000000000e+00 +1.5925186435e+00 1.5925186435e+00 0.0000000000e+00 0.0000e+00 -1.0000e+00
       -2 -1    0    0    0  501 -0.0000000000e+00 -0.0000000000e+00 -1.3053616951e+03 1.3053616951e+03 0.0000000000e+00 0.0000e+00 1.0000e+00
       23  1    1    2    0    0 +0.0000000000e+00 +0.0000000000e+00 -1.3037691765e+03 1.3069542138e+03 9.1188000000e+01 0.0000e+00 -1.0000e+00
<mgrwt>
<rscale>  0 0.91188000E+02</rscale>
<asrwt>0</asrwt>
<pdfrwt beam="1">  1        2 0.24500455E-03 0.91188000E+02</pdfrwt>
<pdfrwt beam="2">  1       -2 0.20082350E+00 0.91188000E+02</pdfrwt>
<totfact> 0.13197160E+04</totfact>
</mgrwt>
</event>
<event>
 3      1 +4.2044000e+04 9.11880000e+01 7.54677100e-03 1.30000000e-01
       -1 -1    0    0    0  501 -0.0000000000e+00 +0.0000000000e+00 +7.7520932484e+01 7.7520932484e+01 0.0000000000e+00 0.0000e+00 1.0000e+00
        1 -1    0    0  501    0 +0.0000000000e+00 -0.0000000000e+00 -2.6816148483e+01 2.6816148483e+01 0.0000000000e+00 0.0000e+00 -1.0000e+00
       23  1    1    2    0    0 +0.0000000000e+00 -0.0000000000e+00 +5.0704784001e+01 1.0433708097e+02 9.1188000000e+01 0.0000e+00 1.0000e+00
<mgrwt>
<rscale>  0 0.91188000E+02</rscale>
<asrwt>0</asrwt>
<pdfrwt beam="2">  1        1 0.41255614E-02 0.91188000E+02</pdfrwt>
<pdfrwt beam="1">  1       -1 0.11926297E-01 0.91188000E+02</pdfrwt>
<totfact> 0.85073181E+04</totfact>
</mgrwt>
</event>
<event>
 3      1 +4.2044000e+04 9.11880000e+01 7.54677100e-03 1.30000000e-01
       -2 -1    0    0    0  501 -0.0000000000e+00 +0.0000000000e+00 +9.8860061840e+01 9.8860061840e+01 0.0000000000e+00 0.0000e+00 1.0000e+00
        2 -1    0    0  501    0 +0.0000000000e+00 -0.0000000000e+00 -2.1027832648e+01 2.1027832648e+01 0.0000000000e+00 0.0000e+00 -1.0000e+00
       23  1    1    2    0    0 +0.0000000000e+00 -0.0000000000e+00 +7.7832229192e+01 1.1988789449e+02 9.1188000000e+01 0.0000e+00 1.0000e+00
<mgrwt>
<rscale>  0 0.91188000E+02</rscale>
<asrwt>0</asrwt>
<pdfrwt beam="2">  1        2 0.32350512E-02 0.91188000E+02</pdfrwt>
<pdfrwt beam="1">  1       -2 0.15209240E-01 0.91188000E+02</pdfrwt>
<totfact> 0.80054726E+04</totfact>
</mgrwt>
</event>
<event>
 3      1 +4.2044000e+04 9.11880000e+01 7.54677100e-03 1.30000000e-01
        2 -1    0    0  501    0 +0.0000000000e+00 +0.0000000000e+00 +1.2833536065e+03 1.2833536065e+03 0.0000000000e+00 0.0000e+00 -1.0000e+00
       -2 -1    0    0    0  501 -0.0000000000e+00 -0.0000000000e+00 -1.6198285690e+00 1.6198285690e+00 0.0000000000e+00 0.0000e+00 1.0000e+00
       23  1    1    2    0    0 +0.0000000000e+00 +0.0000000000e+00 +1.2817337780e+03 1.2849734351e+03 9.1188000000e+01 0.0000e+00 -1.0000e+00
<mgrwt>
<rscale>  0 0.91188000E+02</rscale>
<asrwt>0</asrwt>
<pdfrwt beam="1">  1        2 0.19743820E+00 0.91188000E+02</pdfrwt>
<pdfrwt beam="2">  1       -2 0.24920542E-03 0.91188000E+02</pdfrwt>
<totfact> 0.24620777E+05</totfact>
</mgrwt>
</event>
<event>
 3      1 +4.2044000e+04 9.11880000e+01 7.54677100e-03 1.30000000e-01
        3 -1    0    0  501    0 +0.0000000000e+00 +0.0000000000e+00 +1.2159791381e+02 1.2159791381e+02 0.0000000000e+00 0.0000e+00 -1.0000e+00
       -3 -1    0    0    0  501 -0.0000000000e+00 -0.0000000000e+00 -1.7095793595e+01 1.7095793595e+01 0.0000000000e+00 0.0000e+00 1.0000e+00
       23  1    1    2    0    0 +0.0000000000e+00 +0.0000000000e+00 +1.0450212021e+02 1.3869370740e+02 9.1188000000e+01 0.0000e+00 -1.0000e+00
<mgrwt>
<rscale>  0 0.91188000E+02</rscale>
<asrwt>0</asrwt>
<pdfrwt beam="1">  1        3 0.18707371E-01 0.91188000E+02</pdfrwt>
<pdfrwt beam="2">  1       -3 0.26301222E-02 0.91188000E+02</pdfrwt>
<totfact> 0.32002662E+04</totfact>
</mgrwt>
</event>
<event>
 3      1 +4.2044000e+04 9.11880000e+01 7.54677100e-03 1.30000000e-01
        1 -1    0    0  501    0 +0.0000000000e+00 +0.0000000000e+00 +1.2791448203e+03 1.2791448203e+03 0.0000000000e+00 0.0000e+00 -1.0000e+00
       -1 -1    0    0    0  501 -0.0000000000e+00 -0.0000000000e+00 -1.6251583112e+00 1.6251583112e+00 0.0000000000e+00 0.0000e+00 1.0000e+00
       23  1    1    2    0    0 +0.0000000000e+00 +0.0000000000e+00 +1.2775196620e+03 1.2807699786e+03 9.1188000000e+01 0.0000e+00 -1.0000e+00
<mgrwt>
<rscale>  0 0.91188000E+02</rscale>
<asrwt>0</asrwt>
<pdfrwt beam="1">  1        1 0.19679071E+00 0.91188000E+02</pdfrwt>
<pdfrwt beam="2">  1       -1 0.25002538E-03 0.91188000E+02</pdfrwt>
<totfact> 0.12315737E+05</totfact>
</mgrwt>
</event>
<event>
 3      1 +4.2044000e+04 9.11880000e+01 7.54677100e-03 1.30000000e-01
        2 -1    0    0  501    0 +0.0000000000e+00 +0.0000000000e+00 +8.4339741876e+01 8.4339741876e+01 0.0000000000e+00 0.0000e+00 -1.0000e+00
       -2 -1    0    0    0  501 -0.0000000000e+00 -0.0000000000e+00 -2.4648081554e+01 2.4648081554e+01 0.0000000000e+00 0.0000e+00 1.0000e+00
       23  1    1    2    0    0 +0.0000000000e+00 +0.0000000000e+00 +5.9691660322e+01 1.0898782343e+02 9.1188000000e+01 0.0000e+00 -1.0000e+00
<mgrwt>
<rscale>  0 0.91188000E+02</rscale>
<asrwt>0</asrwt>
<pdfrwt beam="1">  1        2 0.12975345E-01 0.91188000E+02</pdfrwt>
<pdfrwt beam="2">  1       -2 0.37920126E-02 0.91188000E+02</pdfrwt>
<totfact> 0.11657738E+05</totfact>
</mgrwt>
</event>
<event>
 3      1 +4.2044000e+04 9.11880000e+01 7.54677100e-03 1.30000000e-01
        2 -1    0    0  501    0 +0.0000000000e+00 +0.0000000000e+00 +8.0058652744e+02 8.0058652744e+02 0.0000000000e+00 0.0000e+00 -1.0000e+00
       -2 -1    0    0    0  501 -0.0000000000e+00 -0.0000000000e+00 -2.5966123145e+00 2.5966123145e+00 0.0000000000e+00 0.0000e+00 1.0000e+00
       23  1    1    2    0    0 +0.0000000000e+00 +0.0000000000e+00 +7.9798991513e+02 8.0318313975e+02 9.1188000000e+01 0.0000e+00 -1.0000e+00
<mgrwt>
<rscale>  0 0.91188000E+02</rscale>
<asrwt>0</asrwt>
<pdfrwt beam="1">  1        2 0.12316696E+00 0.91188000E+02</pdfrwt>
<pdfrwt beam="2">  1       -2 0.39947945E-03 0.91188000E+02</pdfrwt>
<totfact> 0.24369221E+05</totfact>
</mgrwt>
</event>
<event>
 3      1 +4.2044000e+04 9.11880000e+01 7.54677100e-03 1.30000000e-01
        1 -1    0    0  501    0 +0.0000000000e+00 +0.0000000000e+00 +3.9375192448e+02 3.9375192448e+02 0.0000000000e+00 0.0000e+00 -1.0000e+00
       -1 -1    0    0    0  501 -0.0000000000e+00 -0.0000000000e+00 -5.2794988590e+00 5.2794988590e+00 0.0000000000e+00 0.0000e+00 1.0000e+00
       23  1    1    2    0    0 +0.0000000000e+00 +0.0000000000e+00 +3.8847242562e+02 3.9903142334e+02 9.1188000000e+01 0.0000e+00 -1.0000e+00
<mgrwt>
<rscale>  0 0.91188000E+02</rscale>
<asrwt>0</asrwt>
<pdfrwt beam="1">  1        1 0.60577196E-01 0.91188000E+02</pdfrwt>
<pdfrwt beam="2">  1       -1 0.81223090E-03 0.91188000E+02</pdfrwt>
<totfact> 0.13449802E+05</totfact>
</mgrwt>
</event>
<event>
 3      1 +4.2044000e+04 9.11880000e+01 7.54677100e-03 1.30000000e-01
       -2 -1    0    0    0  501 -0.0000000000e+00 +0.0000000000e+00 +6.0760506830e+01 6.0760506830e+01 0.0000000000e+00 0.0000e+00 1.0000e+00
        2 -1    0    0  501    0 +0.0000000000e+00 -0.0000000000e+00 -3.4213224090e+01 3.4213224090e+01 0.0000000000e+00 0.0000e+00 -1.0000e+00
       23  1    1    2    0    0 +0.0000000000e+00 -0.0000000000e+00 +2.6547282739e+01 9.4973730920e+01 9.1188000000e+01 0.0000e+00 1.0000e+00
<mgrwt>
<rscale>  0 0.91188000E+02</rscale>
<asrwt>0</asrwt>
<pdfrwt beam="2">  1        2 0.52635729E-02 0.91188000E+02</pdfrwt>
<pdfrwt beam="1">  1       -2 0.93477703E-02 0.91188000E+02</pdfrwt>
<totfact> 0.91558536E+04</totfact>
</mgrwt>
</event>
<event>
 3      1 +4.2044000e+04 9.11880000e+01 7.54677100e-03 1.30000000e-01
        1 -1    0    0  501    0 +0.0000000000e+00 +0.0000000000e+00 +2.0339516677e+02 2.0339516677e+02 0.0000000000e+00 0.0000e+00 -1.0000e+00
       -1 -1    0    0    0  501 -0.0000000000e+00 -0.0000000000e+00 -1.0220561624e+01 1.0220561624e+01 0.0000000000e+00 0.0000e+00 1.0000e+00
       23  1    1    2    0    0 +0.0000000000e+00 +0.0000000000e+00 +1.9317460515e+02 2.1361572840e+02 9.1188000000e+01 0.0000e+00 -1.0000e+00
<mgrwt>
<rscale>  0 0.91188000E+02</rscale>
<asrwt>0</asrwt>
<pdfrwt beam="1">  1        1 0.31291561E-01 0.91188000E+02</pdfrwt>
<pdfrwt beam="2">  1       -1 0.15723943E-02 0.91188000E+02</pdfrwt>
<totfact> 0.11875450E+05</totfact>
</mgrwt>
</event>
<event>
 3      1 +4.2044000e+04 9.11880000e+01 7.54677100e-03 1.30000000e-01
       -1 -1    0    0    0  501 -0.0000000000e+00 +0.0000000000e+00 +8.7019747603e+00 8.7019747603e+00 0.0000000000e+00 0.0000e+00 1.0000e+00
        1 -1    0    0  501    0 +0.0000000000e+00 -0.0000000000e+00 -2.3888977999e+02 2.3888977999e+02 0.0000000000e+00 0.0000e+00 -1.0000e+00
       23  1    1    2    0    0 +0.0000000000e+00 -0.0000000000e+00 -2.3018780523e+02 2.4759175475e+02 9.1188000000e+01 0.0000e+00 1.0000e+00
<mgrwt>
<rscale>  0 0.91188000E+02</rscale>
<asrwt>0</asrwt>
<pdfrwt beam="2">  1        1 0.36752268E-01 0.91188000E+02</pdfrwt>
<pdfrwt beam="1">  1       -1 0.13387655E-02 0.91188000E+02</pdfrwt>
<totfact> 0.12253877E+05</totfact>
</mgrwt>
</event>
<event>
 3      1 +4.2044000e+04 9.11880000e+01 7.54677100e-03 1.30000000e-01
        4 -1    0    0  501    0 +0.0000000000e+00 +0.0000000000e+00 +9.3826042026e+01 9.3826042026e+01 0.0000000000e+00 0.0000e+00 -1.0000e+00
       -4 -1    0    0    0  501 -0.0000000000e+00 -0.0000000000e+00 -2.2156032495e+01 2.2156032495e+01 0.0000000000e+00 0.0000e+00 1.0000e+00
       23  1    1    2    0    0 +0.0000000000e+00 +0.0000000000e+00 +7.1670009531e+01 1.1598207452e+02 9.1188000000e+01 0.0000e+00 -1.0000e+00
<mgrwt>
<rscale>  0 0.91188000E+02</rscale>
<asrwt>0</asrwt>
<pdfrwt beam="1">  1        4 0.14434775E-01 0.91188000E+02</pdfrwt>
<pdfrwt beam="2">  1       -4 0.34086204E-02 0.91188000E+02</pdfrwt>
<totfact> 0.25494131E+04</totfact>
</mgrwt>
</event>
<event>
 3      1 +4.2044000e+04 9.11880000e+01 7.54677100e-03 1.30000000e-01
       -2 -1    0    0    0  501 -0.0000000000e+00 +0.0000000000e+00 +1.6032216978e+00 1.6032216978e+00 0.0000000000e+00 0.0000e+00 1.0000e+00
        2 -1    0    0  501    0 +0.0000000000e+00 -0.0000000000e+00 -1.2966471443e+03 1.2966471443e+03 0.0000000000e+00 0.0000e+00 -1.0000e+00
       23  1    1    2    0    0 +0.0000000000e+00 -0.0000000000e+00 -1.2950439226e+03 1.2982503660e+03 9.1188000000e+01 0.0000e+00 1.0000e+00
<mgrwt>
<rscale>  0 0.91188000E+02</rscale>
<asrwt>0</asrwt>
<pdfrwt beam="2">  1        2 0.19948390E+00 0.91188000E+02</pdfrwt>
<pdfrwt beam="1">  1       -2 0.24664983E-03 0.91188000E+02</pdfrwt>
<totfact> 0.24573726E+05</totfact>
</mgrwt>
</event>
<event>
 3      1 +4.2044000e+04 9.11880000e+01 7.54677100e-03 1.30000000e-01
       -1 -1    0    0    0  501 -0.0000000000e+00 +0.0000000000e+00 +8.7145764660e-01 8.7145764660e-01 0.0000000000e+00 0.0000e+00 1.0000e+00
        1 -1    0    0  501    0 +0.0000000000e+00 -0.0000000000e+00 -2.3854433363e+03 2.3854433363e+03 0.0000000000e+00 0.0000e+00 -1.0000e+00
       23  1    1    2    0    0 +0.0000000000e+00 -0.0000000000e+00 -2.3845718787e+03 2.3863147940e+03 9.1188000000e+01 0.0000e+00 1.0000e+00
<mgrwt>
<rscale>  0 0.91188000E+02</rscale>
<asrwt>0</asrwt>
<pdfrwt beam="2">  1        1 0.36698649E+00 0.91188000E+02</pdfrwt>
<pdfrwt beam="1">  1       -1 0.13407216E-03 0.91188000E+02</pdfrwt>
<totfact> 0.58046099E+04</totfact>
</mgrwt>
</event>
<event>
 3      1 +4.2044000e+04 9.11880000e+01 7.54677100e-03 1.30000000e-01
        2 -1    0    0  501    0 +0.0000000000e+00 +0.0000000000e+00 +1.1048950968e+03 1.1048950968e+03 0.0000000000e+00 0.0000e+00 -1.0000e+00
       -2 -1    0    0    0  501 -0.0000000000e+00 -0.0000000000e+00 -1.8814572008e+00 1.8814572008e+00 0.0000000000e+00 0.0000e+00 1.0000e+00
       23  1    1    2    0    0 +0.0000000000e+00 +0.0000000000e+00 +1.1030136396e+03 1.1067765540e+03 9.1188000000e+01 0.0000e+00 -1.0000e+00
<mgrwt>
<rscale>  0 0.91188000E+02</rscale>
<asrwt>0</asrwt>
<pdfrwt beam="1">  1        2 0.16998334E+00 0.91188000E+02</pdfrwt>
<pdfrwt beam="2">  1       -2 0.28945584E-03 0.91188000E+02</pdfrwt>
<totfact> 0.25007295E+05</totfact>
</mgrwt>
</event>
<event>
 3      1 +4.2044000e+04 9.11880000e+01 7.54677100e-03 1.30000000e-01
        2 -1    0    0  501    0 +0.0000000000e+00 +0.0000000000e+00 +8.1567125023e+02 8.1567125023e+02 0.0000000000e+00 0.0000e+00 -1.0000e+00
       -2 -1    0    0    0  501 -0.0000000000e+00 -0.0000000000e+00 -2.5485915256e+00 2.5485915256e+00 0.0000000000e+00 0.0000e+00 1.0000e+00
       23  1    1    2    0    0 +0.0000000000e+00 +0.0000000000e+00 +8.1312265870e+02 8.1821984175e+02 9.1188000000e+01 0.0000e+00 -1.0000e+00
<mgrwt>
<rscale>  0 0.91188000E+02</rscale>
<asrwt>0</asrwt>
<pdfrwt beam="1">  1        2 0.12548768E+00 0.91188000E+02</pdfrwt>
<pdfrwt beam="2">  1       -2 0.39209165E-03 0.91188000E+02</pdfrwt>
<totfact> 0.24447007E+05</totfact>
</mgrwt>
</event>
<event>
 3      1 +4.2044000e+04 9.11880000e+01 7.54677100e-03 1.30000000e-01
        2 -1    0    0  501    0 +0.0000000000e+00 +0.0000000000e+00 +7.6186796255e+02 7.6186796255e+02 0.0000000000e+00 0.0000e+00 -1.0000e+00
       -2 -1    0    0    0  501 -0.0000000000e+00 -0.0000000000e+00 -2.7285736350e+00 2.7285736350e+00 0.0000000000e+00 0.0000e+00 1.0000e+00
       23  1    1    2    0    0 +0.0000000000e+00 +0.0000000000e+00 +7.5913938891e+02 7.6459653618e+02 9.1188000000e+01 0.0000e+00 -1.0000e+00
<mgrwt>
<rscale>  0 0.91188000E+02</rscale>
<asrwt>0</asrwt>
<pdfrwt beam="1">  1        2 0.11721029E+00 0.91188000E+02</pdfrwt>
<pdfrwt beam="2">  1       -2 0.41978117E-03 0.91188000E+02</pdfrwt>
<totfact> 0.24144447E+05</totfact>
</mgrwt>
</event>
<event>
 3      1 +4.2044000e+04 9.11880000e+01 7.54677100e-03 1.30000000e-01
       -2 -1    0    0    0  501 -0.0000000000e+00 +0.0000000000e+00 +1.4604953160e+02 1.4604953160e+02 0.0000000000e+00 0.0000e+00 -1.0000e+00
        2 -1    0    0  501    0 +0.0000000000e+00 -0.0000000000e+00 -1.4233615221e+01 1.4233615221e+01 0.0000000000e+00 0.0000e+00 1.0000e+00
       23  1    1    2    0    0 +0.0000000000e+00 -0.0000000000e+00 +1.3181591638e+02 1.6028314682e+02 9.1188000000e+01 0.0000e+00 -1.0000e+00
<mgrwt>
<rscale>  0 0.91188000E+02</rscale>
<asrwt>0</asrwt>
<pdfrwt beam="2">  1        2 0.21897871E-02 0.91188000E+02</pdfrwt>
<pdfrwt beam="1">  1       -2 0.22469158E-01 0.91188000E+02</pdfrwt>
<totfact> 0.70511753E+04</totfact>
</mgrwt>
</event>
<event>
 3      1 +4.2044000e+04 9.11880000e+01 7.54677100e-03 1.30000000e-01
        2 -1    0    0  501    0 +0.0000000000e+00 +0.0000000000e+00 +1.2560453570e+03 1.2560453570e+03 0.0000000000e+00 0.0000e+00 -1.0000e+00
       -2 -1    0    0    0  501 -0.0000000000e+00 -0.0000000000e+00 -1.6550459937e+00 1.6550459937e+00 0.0000000000e+00 0.0000e+00 1.0000e+00
       23  1    1    2    0    0 +0.0000000000e+00 +0.0000000000e+00 +1.2543903110e+03 1.2577004030e+03 9.1188000000e+01 0.0000e+00 -1.0000e+00
<mgrwt>
<rscale>  0 0.91188000E+02</rscale>
<asrwt>0</asrwt>
<pdfrwt beam="1">  1        2 0.19323699E+00 0.91188000E+02</pdfrwt>
<pdfrwt beam="2">  1       -2 0.25462346E-03 0.91188000E+02</pdfrwt>
<totfact> 0.24709958E+05</totfact>
</mgrwt>
</event>
<event>
 3      1 +4.2044000e+04 9.11880000e+01 7.54677100e-03 1.30000000e-01
        3 -1    0    0  501    0 +0.0000000000e+00 +0.0000000000e+00 +4.3972788397e+02 4.3972788397e+02 0.0000000000e+00 0.0000e+00 -1.0000e+00
       -3 -1    0    0    0  501 -0.0000000000e+00 -0.0000000000e+00 -4.7274983275e+00 4.7274983275e+00 0.0000000000e+00 0.0000e+00 1.0000e+00
       23  1    1    2    0    0 +0.0000000000e+00 +0.0000000000e+00 +4.3500038564e+02 4.4445538230e+02 9.1188000000e+01 0.0000e+00 -1.0000e+00
<mgrwt>
<rscale>  0 0.91188000E+02</rscale>
<asrwt>0</asrwt>
<pdfrwt beam="1">  1        3 0.67650412E-01 0.91188000E+02</pdfrwt>
<pdfrwt beam="2">  1       -3 0.72730778E-03 0.91188000E+02</pdfrwt>
<totfact> 0.19332765E+04</totfact>
</mgrwt>
</event>
<event>
 3      1 +4.2044000e+04 9.11880000e+01 7.54677100e-03 1.30000000e-01
       -2 -1    0    0    0  501 -0.0000000000e+00 +0.0000000000e+00 +1.0549779645e+01 1.0549779645e+01 0.0000000000e+00 0.0000e+00 1.0000e+00
        2 -1    0    0  501    0 +0.0000000000e+00 -0.0000000000e+00 -1.9704798641e+02 1.9704798641e+02 0.0000000000e+00 0.0000e+00 -1.0000e+00
       23  1    1    2    0    0 +0.0000000000e+00 -0.0000000000e+00 -1.8649820676e+02 2.0759776605e+02 9.1188000000e+01 0.0000e+00 1.0000e+00
<mgrwt>
<rscale>  0 0.91188000E+02</rscale>
<asrwt>0</asrwt>
<pdfrwt beam="2">  1        2 0.30315076E-01 0.91188000E+02</pdfrwt>
<pdfrwt beam="1">  1       -2 0.16230430E-02 0.91188000E+02</pdfrwt>
<totfact> 0.15380032E+05</totfact>
</mgrwt>
</event>
<event>
 3      1 +4.2044000e+04 9.11880000e+01 7.54677100e-03 1.30000000e-01
       -1 -1    0    0    0  501 -0.0000000000e+00 +0.0000000000e+00 +1.8633248054e+00 1.8633248054e+00 0.0000000000e+00 0.0000e+00 1.0000e+00
        1 -1    0    0  501    0 +0.0000000000e+00 -0.0000000000e+00 -1.1156470573e+03 1.1156470573e+03 0.0000000000e+00 0.0000e+00 -1.0000e+00
       23  1    1    2    0    0 +0.0000000000e+00 -0.0000000000e+00 -1.1137837325e+03 1.1175103821e+03 9.1188000000e+01 0.0000e+00 1.0000e+00
<mgrwt>
<rscale>  0 0.91188000E+02</rscale>
<asrwt>0</asrwt>
<pdfrwt beam="2">  1        1 0.17163782E+00 0.91188000E+02</pdfrwt>
<pdfrwt beam="1">  1       -1 0.28666567E-03 0.91188000E+02</pdfrwt>
<totfact> 0.13126424E+05</totfact>
</mgrwt>
</event>
<event>
 3      1 +4.2044000e+04 9.11880000e+01 7.54677100e-03 1.30000000e-01
        1 -1    0    0  501    0 +0.0000000000e+00 +0.0000000000e+00 +2.9944753720e+02 2.9944753720e+02 0.0000000000e+00 0.0000e+00 -1.0000e+00
       -1 -1    0    0    0  501 -0.0000000000e+00 -0.0000000000e+00 -6.9421604046e+00 6.9421604046e+00 0.0000000000e+00 0.0000e+00 1.0000e+00
       23  1    1    2    0    0 +0.0000000000e+00 +0.0000000000e+00 +2.9250537680e+02 3.0638969760e+02 9.1188000000e+01 0.0000e+00 -1.0000e+00
<mgrwt>
<rscale>  0 0.91188000E+02</rscale>
<asrwt>0</asrwt>
<pdfrwt beam="1">  1        1 0.46068842E-01 0.91188000E+02</pdfrwt>
<pdfrwt beam="2">  1       -1 0.10680249E-02 0.91188000E+02</pdfrwt>
<totfact> 0.12803508E+05</totfact>
</mgrwt>
</event>
<event>
 3      1 +4.2044000e+04 9.11880000e+01 7.54677100e-03 1.30000000e-01
       -2 -1    0    0    0  501 -0.0000000000e+00 +0.0000000000e+00 +2.4324610140e+00 2.4324610140e+00 0.0000000000e+00 0.0000e+00 1.0000e+00
        2 -1    0    0  501    0 +0.0000000000e+00 -0.0000000000e+00 -8.5461301293e+02 8.5461301293e+02 0.0000000000e+00 0.0000e+00 -1.0000e+00
       23  1    1    2    0    0 +0.0000000000e+00 -0.0000000000e+00 -8.5218055191e+02 8.5704547394e+02 9.1188000000e+01 0.0000e+00 1.0000e+00
<mgrwt>
<rscale>  0 0.91188000E+02</rscale>
<asrwt>0</asrwt>
<pdfrwt beam="2">  1        2 0.13147893E+00 0.91188000E+02</pdfrwt>
<pdfrwt beam="1">  1       -2 0.37422475E-03 0.91188000E+02</pdfrwt>
<totfact> 0.24623387E+05</totfact>
</mgrwt>
</event>
<event>
 3      1 +4.2044000e+04 9.11880000e+01 7.54677100e-03 1.30000000e-01
        2 -1    0    0  501    0 +0.0000000000e+00 +0.0000000000e+00 +5.9967963053e+00 5.9967963053e+00 0.0000000000e+00 0.0000e+00 -1.0000e+00
       -2 -1    0    0    0  501 -0.0000000000e+00 -0.0000000000e+00 -3.4665390155e+02 3.4665390155e+02 0.0000000000e+00 0.0000e+00 1.0000e+00
       23  1    1    2    0    0 +0.0000000000e+00 +0.0000000000e+00 -3.4065710524e+02 3.5265069785e+02 9.1188000000e+01 0.0000e+00 -1.0000e+00
<mgrwt>
<rscale>  0 0.91188000E+02</rscale>
<asrwt>0</asrwt>
<pdfrwt beam="1">  1        2 0.92258406E-03 0.91188000E+02</pdfrwt>
<pdfrwt beam="2">  1       -2 0.53331368E-01 0.91188000E+02</pdfrwt>
<totfact> 0.46819286E+04</totfact>
</mgrwt>
</event>
<event>
 3      1 +4.2044000e+04 9.11880000e+01 7.54677100e-03 1.30000000e-01
       -1 -1    0    0    0  501 -0.0000000000e+00 +0.0000000000e+00 +1.2191921675e+02 1.2191921675e+02 0.0000000000e+00 0.0000e+00 1.0000e+00
        1 -1    0    0  501    0 +0.0000000000e+00 -0.0000000000e+00 -1.7050739755e+01 1.7050739755e+01 0.0000000000e+00 0.0000e+00 -1.0000e+00
       23  1    1    2    0    0 +0.0000000000e+00 -0.0000000000e+00 +1.0486847700e+02 1.3896995651e+02 9.1188000000e+01 0.0000e+00 1.0000e+00
<mgrwt>
<rscale>  0 0.91188000E+02</rscale>
<asrwt>0</asrwt>
<pdfrwt beam="2">  1        1 0.26231908E-02 0.91188000E+02</pdfrwt>
<pdfrwt beam="1">  1       -1 0.18756802E-01 0.91188000E+02</pdfrwt>
<totfact> 0.78250352E+04</totfact>
</mgrwt>
</event>
<event>
 3      1 +4.2044000e+04 9.11880000e+01 7.54677100e-03 1.30000000e-01
       -3 -1    0    0    0  501 -0.0000000000e+00 +0.0000000000e+00 +1.9754335649e+02 1.9754335649e+02 0.0000000000e+00 0.0000e+00 1.0000e+00
        3 -1    0    0  501    0 +0.0000000000e+00 -0.0000000000e+00 -1.0523324464e+01 1.0523324464e+01 0.0000000000e+00 0.0000e+00 -1.0000e+00
       23  1    1    2    0    0 +0.0000000000e+00 -0.0000000000e+00 +1.8702003202e+02 2.0806668095e+02 9.1188000000e+01 0.0000e+00 1.0000e+00
<mgrwt>
<rscale>  0 0.91188000E+02</rscale>
<asrwt>0</asrwt>
<pdfrwt beam="2">  1        3 0.16189731E-02 0.91188000E+02</pdfrwt>
<pdfrwt beam="1">  1       -3 0.30391283E-01 0.91188000E+02</pdfrwt>
<totfact> 0.28075832E+04</totfact>
</mgrwt>
</event>
<event>
 3      1 +4.2044000e+04 9.11880000e+01 7.54677100e-03 1.30000000e-01
       -4 -1    0    0    0  501 -0.0000000000e+00 +0.0000000000e+00 +3.8837528357e+00 3.8837528357e+00 0.0000000000e+00 0.0000e+00 1.0000e+00
        4 -1    0    0  501    0 +0.0000000000e+00 -0.0000000000e+00 -5.3525878807e+02 5.3525878807e+02 0.0000000000e+00 0.0000e+00 -1.0000e+00
       23  1    1    2    0    0 +0.0000000000e+00 -0.0000000000e+00 -5.3137503524e+02 5.3914254091e+02 9.1188000000e+01 0.0000e+00 1.0000e+00
<mgrwt>
<rscale>  0 0.91188000E+02</rscale>
<asrwt>0</asrwt>
<pdfrwt beam="2">  1        4 0.82347542E-01 0.91188000E+02</pdfrwt>
<pdfrwt beam="1">  1       -4 0.59750017E-03 0.91188000E+02</pdfrwt>
<totfact> 0.12372597E+04</totfact>
</mgrwt>
</event>
<event>
 3      1 +4.2044000e+04 9.11880000e+01 7.54677100e-03 1.30000000e-01
       -1 -1    0    0    0  501 -0.0000000000e+00 +0.0000000000e+00 +2.5439635932e+00 2.5439635932e+00 0.0000000000e+00 0.0000e+00 1.0000e+00
        1 -1    0    0  501    0 +0.0000000000e+00 -0.0000000000e+00 -8.1715510456e+02 8.1715510456e+02 0.0000000000e+00 0.0000e+00 -1.0000e+00
       23  1    1    2    0    0 +0.0000000000e+00 -0.0000000000e+00 -8.1461114097e+02 8.1969906815e+02 9.1188000000e+01 0.0000e+00 1.0000e+00
<mgrwt>
<rscale>  0 0.91188000E+02</rscale>
<asrwt>0</asrwt>
<pdfrwt beam="2">  1        1 0.12571623E+00 0.91188000E+02</pdfrwt>
<pdfrwt beam="1">  1       -1 0.39137882E-03 0.91188000E+02</pdfrwt>
<totfact> 0.14097066E+05</totfact>
</mgrwt>
</event>
<event>
 3      1 +4.2044000e+04 9.11880000e+01 7.54677100e-03 1.30000000e-01
        1 -1    0    0  501    0 +0.0000000000e+00 +0.0000000000e+00 +3.3578637103e+02 3.3578637103e+02 0.0000000000e+00 0.0000e+00 -1.0000e+00
       -1 -1    0    0    0  501 -0.0000000000e+00 -0.0000000000e+00 -6.1908791284e+00 6.1908791284e+00 0.0000000000e+00 0.0000e+00 1.0000e+00
       23  1    1    2    0    0 +0.0000000000e+00 +0.0000000000e+00 +3.2959549190e+02 3.4197725016e+02 9.1188000000e+01 0.0000e+00 -1.0000e+00
<mgrwt>
<rscale>  0 0.91188000E+02</rscale>
<asrwt>0</asrwt>
<pdfrwt beam="1">  1        1 0.51659427E-01 0.91188000E+02</pdfrwt>
<pdfrwt beam="2">  1       -1 0.95244321E-03 0.91188000E+02</pdfrwt>
<totfact> 0.13080666E+05</totfact>
</mgrwt>
</event>
<event>
 3      1 +4.2044000e+04 9.11880000e+01 7.54677100e-03 1.30000000e-01
        1 -1    0    0  501    0 +0.0000000000e+00 +0.0000000000e+00 +2.2006896610e+03 2.2006896610e+03 0.0000000000e+00 0.0000e+00 -1.0000e+00
       -1 -1    0    0    0  501 -0.0000000000e+00 -0.0000000000e+00 -9.4461880420e-01 9.4461880420e-01 0.0000000000e+00 0.0000e+00 1.0000e+00
       23  1    1    2    0    0 +0.0000000000e+00 +0.0000000000e+00 +2.1997450422e+03 2.2016342798e+03 9.1188000000e+01 0.0000e+00 -1.0000e+00
<mgrwt>
<rscale>  0 0.91188000E+02</rscale>
<asrwt>0</asrwt>
<pdfrwt beam="1">  1        1 0.33856354E+00 0.91188000E+02</pdfrwt>
<pdfrwt beam="2">  1       -1 0.14532773E-03 0.91188000E+02</pdfrwt>
<totfact> 0.68030070E+04</totfact>
</mgrwt>
</event>
<event>
 3      1 +4.2044000e+04 9.11880000e+01 7.54677100e-03 1.30000000e-01
        2 -1    0    0  501    0 +0.0000000000e+00 +0.0000000000e+00 +2.4932952411e+02 2.4932952411e+02 0.0000000000e+00 0.0000e+00 -1.0000e+00
       -2 -1    0    0    0  501 -0.0000000000e+00 -0.0000000000e+00 -8.3376120154e+00 8.3376120154e+00 0.0000000000e+00 0.0000e+00 1.0000e+00
       23  1    1    2    0    0 +0.0000000000e+00 +0.0000000000e+00 +2.4099191209e+02 2.5766713612e+02 9.1188000000e+01 0.0000e+00 -1.0000e+00
<mgrwt>
<rscale>  0 0.91188000E+02</rscale>
<asrwt>0</asrwt>
<pdfrwt beam="1">  1        2 0.38358383E-01 0.91188000E+02</pdfrwt>
<pdfrwt beam="2">  1       -2 0.12827097E-02 0.91188000E+02</pdfrwt>
<totfact> 0.16763868E+05</totfact>
</mgrwt>
</event>
<event>
 3      1 +4.2044000e+04 9.11880000e+01 7.54677100e-03 1.30000000e-01
       -3 -1    0    0    0  501 -0.0000000000e+00 +0.0000000000e+00 +3.3289867255e+02 3.3289867255e+02 0.0000000000e+00 0.0000e+00 1.0000e+00
        3 -1    0    0  501    0 +0.0000000000e+00 -0.0000000000e+00 -6.2445813319e+00 6.2445813319e+00 0.0000000000e+00 0.0000e+00 -1.0000e+00
       23  1    1    2    0    0 +0.0000000000e+00 -0.0000000000e+00 +3.2665409121e+02 3.3914325388e+02 9.1188000000e+01 0.0000e+00 1.0000e+00
<mgrwt>
<rscale>  0 0.91188000E+02</rscale>
<asrwt>0</asrwt>
<pdfrwt beam="2">  1        3 0.96070508E-03 0.91188000E+02</pdfrwt>
<pdfrwt beam="1">  1       -3 0.51215167E-01 0.91188000E+02</pdfrwt>
<totfact> 0.22573963E+04</totfact>
</mgrwt>
</event>
<event>
 3      1 +4.2044000e+04 9.11880000e+01 7.54677100e-03 1.30000000e-01
       -1 -1    0    0    0  501 -0.0000000000e+00 +0.0000000000e+00 +1.8304742430e+01 1.8304742430e+01 0.0000000000e+00 0.0000e+00 1.0000e+00
        1 -1    0    0  501    0 +0.0000000000e+00 -0.0000000000e+00 -1.1356689907e+02 1.1356689907e+02 0.0000000000e+00 0.0000e+00 -1.0000e+00
       23  1    1    2    0    0 +0.0000000000e+00 -0.0000000000e+00 -9.5262156639e+01 1.3187164150e+02 9.1188000000e+01 0.0000e+00 1.0000e+00
<mgrwt>
<rscale>  0 0.91188000E+02</rscale>
<asrwt>0</asrwt>
<pdfrwt beam="2">  1        1 0.17471831E-01 0.91188000E+02</pdfrwt>
<pdfrwt beam="1">  1       -1 0.28161142E-02 0.91188000E+02</pdfrwt>
<totfact> 0.10668387E+05</totfact>
</mgrwt>
</event>
<event>
 3      1 +4.2044000e+04 9.11880000e+01 7.54677100e-03 1.30000000e-01
        2 -1    0    0  501    0 +0.0000000000e+00 +0.0000000000e+00 +3.6487463340e+02 3.6487463340e+02 0.0000000000e+00 0.0000e+00 -1.0000e+00
       -2 -1    0    0    0  501 -0.0000000000e+00 -0.0000000000e+00 -5.6973344971e+00 5.6973344971e+00 0.0000000000e+00 0.0000e+00 1.0000e+00
       23  1    1    2    0    0 +0.0000000000e+00 +0.0000000000e+00 +3.5917729891e+02 3.7057196790e+02 9.1188000000e+01 0.0000e+00 -1.0000e+00
<mgrwt>
<rscale>  0 0.91188000E+02</rscale>
<asrwt>0</asrwt>
<pdfrwt beam="1">  1        2 0.56134541E-01 0.91188000E+02</pdfrwt>
<pdfrwt beam="2">  1       -2 0.87651329E-03 0.91188000E+02</pdfrwt>
<totfact> 0.19304265E+05</totfact>
</mgrwt>
</event>
<event>
 3      1 +4.2044000e+04 9.11880000e+01 7.54677100e-03 1.30000000e-01
       -1 -1    0    0    0  501 -0.0000000000e+00 +0.0000000000e+00 +8.2986258473e+01 8.2986258473e+01 0.0000000000e+00 0.0000e+00 1.0000e+00
        1 -1    0    0  501    0 +0.0000000000e+00 -0.0000000000e+00 -2.5050085089e+01 2.5050085089e+01 0.0000000000e+00 0.0000e+00 -1.0000e+00
       23  1    1    2    0    0 +0.0000000000e+00 -0.0000000000e+00 +5.7936173384e+01 1.0803634356e+02 9.1188000000e+01 0.0000e+00 1.0000e+00
<mgrwt>
<rscale>  0 0.91188000E+02</rscale>
<asrwt>0</asrwt>
<pdfrwt beam="2">  1        1 0.38538593E-02 0.91188000E+02</pdfrwt>
<pdfrwt beam="1">  1       -1 0.12767117E-01 0.91188000E+02</pdfrwt>
<totfact> 0.84097730E+04</totfact>
</mgrwt>
</event>
<event>
 3      1 +4.2044000e+04 9.11880000e+01 7.54677100e-03 1.30000000e-01
        1 -1    0    0  501    0 +0.0000000000e+00 +0.0000000000e+00 +2.0301427127e+02 2.0301427127e+02 0.0000000000e+00 0.0000e+00 -1.0000e+00
       -1 -1    0    0    0  501 -0.0000000000e+00 -0.0000000000e+00 -1.0239737448e+01 1.0239737448e+01 0.0000000000e+00 0.0000e+00 1.0000e+00
       23  1    1    2    0    0 +0.0000000000e+00 +0.0000000000e+00 +1.9277453382e+02 2.1325400872e+02 9.1188000000e+01 0.0000e+00 -1.0000e+00
<mgrwt>
<rscale>  0 0.91188000E+02</rscale>
<asrwt>0</asrwt>
<pdfrwt beam="1">  1        1 0.31232962E-01 0.91188000E+02</pdfrwt>
<pdfrwt beam="2">  1       -1 0.15753444E-02 0.91188000E+02</pdfrwt>
<totfact> 0.11871127E+05</totfact>
</mgrwt>
</event>
<event>
 3      1 +4.2044000e+04 9.11880000e+01 7.54677100e-03 1.30000000e-01
        2 -1    0    0  501    0 +0.0000000000e+00 +0.0000000000e+00 +5.4275945928e+02 5.4275945928e+02 0.0000000000e+00 0.0000e+00 -1.0000e+00
       -2 -1    0    0    0  501 -0.0000000000e+00 -0.0000000000e+00 -3.8300812643e+00 3.8300812643e+00 0.0000000000e+00 0.0000e+00 1.0000e+00
       23  1    1    2    0    0 +0.0000000000e+00 +0.0000000000e+00 +5.3892937802e+02 5.4658954055e+02 9.1188000000e+01 0.0000e+00 -1.0000e+00
<mgrwt>
<rscale>  0 0.91188000E+02</rscale>
<asrwt>0</asrwt>
<pdfrwt beam="1">  1        2 0.83501395E-01 0.91188000E+02</pdfrwt>
<pdfrwt beam="2">  1       -2 0.58924370E-03 0.91188000E+02</pdfrwt>
<totfact> 0.22110066E+05</totfact>
</mgrwt>
</event>
<event>
 3      1 +4.2044000e+04 9.11880000e+01 7.54677100e-03 1.30000000e-01
       -2 -1    0    0    0  501 -0.0000000000e+00 +0.0000000000e+00 +2.0162614680e+02 2.0162614680e+02 0.0000000000e+00 0.0000e+00 -1.0000e+00
        2 -1    0    0  501    0 +0.0000000000e+00 -0.0000000000e+00 -1.0310234406e+01 1.0310234406e+01 0.0000000000e+00 0.0000e+00 1.0000e+00
       23  1    1    2    0    0 +0.0000000000e+00 -0.0000000000e+00 +1.9131591240e+02 2.1193638121e+02 9.1188000000e+01 0.0000e+00 -1.0000e+00
<mgrwt>
<rscale>  0 0.91188000E+02</rscale>
<asrwt>0</asrwt>
<pdfrwt beam="2">  1        2 0.15861901E-02 0.91188000E+02</pdfrwt>
<pdfrwt beam="1">  1       -2 0.31019404E-01 0.91188000E+02</pdfrwt>
<totfact> 0.62081124E+04</totfact>
</mgrwt>
</event>
<event>
 3      1 +4.2044000e+04 9.11880000e+01 7.54677100e-03 1.30000000e-01
        2 -1    0    0  501    0 +0.0000000000e+00 +0.0000000000e+00 +1.7550193972e+03 1.7550193972e+03 0.0000000000e+00 0.0000e+00 -1.0000e+00
       -2 -1    0    0    0  501 -0.0000000000e+00 -0.0000000000e+00 -1.1844956468e+00 1.1844956468e+00 0.0000000000e+00 0.0000e+00 1.0000e+00
       23  1    1    2    0    0 +0.0000000000e+00 +0.0000000000e+00 +1.7538349015e+03 1.7562038928e+03 9.1188000000e+01 0.0000e+00 -1.0000e+00
<mgrwt>
<rscale>  0 0.91188000E+02</rscale>
<asrwt>0</asrwt>
<pdfrwt beam="1">  1        2 0.27000090E+00 0.91188000E+02</pdfrwt>
<pdfrwt beam="2">  1       -2 0.18223150E-03 0.91188000E+02</pdfrwt>
<totfact> 0.21791883E+05</totfact>
</mgrwt>
</event>
<event>
 3      1 +4.2044000e+04 9.11880000e+01 7.54677100e-03 1.30000000e-01
        2 -1    0    0  501    0 +0.0000000000e+00 +0.0000000000e+00 +7.5180586045e+00 7.5180586045e+00 0.0000000000e+00 0.0000e+00 -1.0000e+00
       -2 -1    0    0    0  501 -0.0000000000e+00 -0.0000000000e+00 -2.7650926195e+02 2.7650926195e+02 0.0000000000e+00 0.0000e+00 1.0000e+00
       23  1    1    2    0    0 +0.0000000000e+00 +0.0000000000e+00 -2.6899120334e+02 2.8402732055e+02 9.1188000000e+01 0.0000e+00 -1.0000e+00
<mgrwt>
<rscale>  0 0.91188000E+02</rscale>
<asrwt>0</asrwt>
<pdfrwt beam="1">  1        2 0.11566244E-02 0.91188000E+02</pdfrwt>
<pdfrwt beam="2">  1       -2 0.42539888E-01 0.91188000E+02</pdfrwt>
<totfact> 0.53313434E+04</totfact>
</mgrwt>
</event>
<event>
 3      1 +4.2044000e+04 9.11880000e+01 7.54677100e-03 1.30000000e-01
        2 -1    0    0  501    0 +0.0000000000e+00 +0.0000000000e+00 +9.5680714236e+02 9.5680714236e+02 0.0000000000e+00 0.0000e+00 -1.0000e+00
       -2 -1    0    0    0  501 -0.0000000000e+00 -0.0000000000e+00 -2.1726560599e+00 2.1726560599e+00 0.0000000000e+00 0.0000e+00 1.0000e+00
       23  1    1    2    0    0 +0.0000000000e+00 +0.0000000000e+00 +9.5463448630e+02 9.5897979842e+02 9.1188000000e+01 0.0000e+00 -1.0000e+00
<mgrwt>
<rscale>  0 0.91188000E+02</rscale>
<asrwt>0</asrwt>
<pdfrwt beam="1">  1        2 0.14720076E+00 0.91188000E+02</pdfrwt>
<pdfrwt beam="2">  1       -2 0.33425554E-03 0.91188000E+02</pdfrwt>
<totfact> 0.24928425E+05</totfact>
</mgrwt>
</event>
<event>
 3      1 +4.2044000e+04 9.11880000e+01 7.54677100e-03 1.30000000e-01
        1 -1    0    0  501    0 +0.0000000000e+00 +0.0000000000e+00 +7.5620833926e+02 7.5620833926e+02 0.0000000000e+00 0.0000e+00 -1.0000e+00
       -1 -1    0    0    0  501 -0.0000000000e+00 -0.0000000000e+00 -2.7489948577e+00 2.7489948577e+00 0.0000000000e+00 0.0000e+00 1.0000e+00
       23  1    1    2    0    0 +0.0000000000e+00 +0.0000000000e+00 +7.5345934441e+02 7.5895733412e+02 9.1188000000e+01 0.0000e+00 -1.0000e+00
<mgrwt>
<rscale>  0 0.91188000E+02</rscale>
<asrwt>0</asrwt>
<pdfrwt beam="1">  1        1 0.11633958E+00 0.91188000E+02</pdfrwt>
<pdfrwt beam="2">  1       -1 0.42292289E-03 0.91188000E+02</pdfrwt>
<totfact> 0.14180400E+05</totfact>
</mgrwt>
</event>
<event>
 3      1 +4.2044000e+04 9.11880000e+01 7.54677100e-03 1.30000000e-01
        1 -1    0    0  501    0 +0.0000000000e+00 +0.0000000000e+00 +5.6482331140e+01 5.6482331140e+01 0.0000000000e+00 0.0000e+00 -1.0000e+00
       -1 -1    0    0    0  501 -0.0000000000e+00 -0.0000000000e+00 -3.6804657209e+01 3.6804657209e+01 0.0000000000e+00 0.0000e+00 1.0000e+00
       23  1    1    2    0    0 +0.0000000000e+00 +0.0000000000e+00 +1.9677673931e+01 9.3286988350e+01 9.1188000000e+01 0.0000e+00 -1.0000e+00
<mgrwt>
<rscale>  0 0.91188000E+02</rscale>
<asrwt>0</asrwt>
<pdfrwt beam="1">  1        1 0.86895894E-02 0.91188000E+02</pdfrwt>
<pdfrwt beam="2">  1       -1 0.56622550E-02 0.91188000E+02</pdfrwt>
<totfact> 0.95463931E+04</totfact>
</mgrwt>
</event>
<event>
 3      1 +4.2044000e+04 9.11880000e+01 7.54677100e-03 1.30000000e-01
        1 -1    0    0  501    0 +0.0000000000e+00 +0.0000000000e+00 +1.4171018561e+02 1.4171018561e+02 0.0000000000e+00 0.0000e+00 -1.0000e+00
       -1 -1    0    0    0  501 -0.0000000000e+00 -0.0000000000e+00 -1.4669466609e+01 1.4669466609e+01 0.0000000000e+00 0.0000e+00 1.0000e+00
       23  1    1    2    0    0 +0.0000000000e+00 +0.0000000000e+00 +1.2704071900e+02 1.5637965222e+02 9.1188000000e+01 0.0000e+00 -1.0000e+00
<mgrwt>
<rscale>  0 0.91188000E+02</rscale>
<asrwt>0</asrwt>
<pdfrwt beam="1">  1        1 0.21801566E-01 0.91188000E+02</pdfrwt>
<pdfrwt beam="2">  1       -1 0.22568411E-02 0.91188000E+02</pdfrwt>
<totfact> 0.11093730E+05</totfact>
</mgrwt>
</event>
<event>
 3      1 +4.2044000e+04 9.11880000e+01 7.54677100e-03 1.30000000e-01
       -4 -1    0    0    0  501 -0.0000000000e+00 +0.0000000000e+00 +2.5007479663e+02 2.5007479663e+02 0.0000000000e+00 0.0000e+00 -1.0000e+00
        4 -1    0    0  501    0 +0.0000000000e+00 -0.0000000000e+00 -8.3127642770e+00 8.3127642770e+00 0.0000000000e+00 0.0000e+00 1.0000e+00
       23  1    1    2    0    0 +0.0000000000e+00 -0.0000000000e+00 +2.4176203235e+02 2.5838756091e+02 9.1188000000e+01 0.0000e+00 -1.0000e+00
<mgrwt>
<rscale>  0 0.91188000E+02</rscale>
<asrwt>0</asrwt>
<pdfrwt beam="2">  1        4 0.12788870E-02 0.91188000E+02</pdfrwt>
<pdfrwt beam="1">  1       -4 0.38473040E-01 0.91188000E+02</pdfrwt>
<totfact> 0.19164152E+04</totfact>
</mgrwt>
</event>
<event>
 3      1 +4.2044000e+04 9.11880000e+01 7.54677100e-03 1.30000000e-01
       -2 -1    0    0    0  501 -0.0000000000e+00 +0.0000000000e+00 +7.8976718629e+01 7.8976718629e+01 0.0000000000e+00 0.0000e+00 1.0000e+00
        2 -1    0    0  501    0 +0.0000000000e+00 -0.0000000000e+00 -2.6321843602e+01 2.6321843602e+01 0.0000000000e+00 0.0000e+00 -1.0000e+00
       23  1    1    2    0    0 +0.0000000000e+00 -0.0000000000e+00 +5.2654875027e+01 1.0529856223e+02 9.1188000000e+01 0.0000e+00 1.0000e+00
<mgrwt>
<rscale>  0 0.91188000E+02</rscale>
<asrwt>0</asrwt>
<pdfrwt beam="2">  1        2 0.40495144E-02 0.91188000E+02</pdfrwt>
<pdfrwt beam="1">  1       -2 0.12150264E-01 0.91188000E+02</pdfrwt>
<totfact> 0.85355541E+04</totfact>
</mgrwt>
</event>
<event>
 3      1 +4.2044000e+04 9.11880000e+01 7.54677100e-03 1.30000000e-01
       -2 -1    0    0    0  501 -0.0000000000e+00 +0.0000000000e+00 +1.6797315734e+00 1.6797315734e+00 0.0000000000e+00 0.0000e+00 1.0000e+00
        2 -1    0    0  501    0 +0.0000000000e+00 -0.0000000000e+00 -1.2375863316e+03 1.2375863316e+03 0.0000000000e+00 0.0000e+00 -1.0000e+00
       23  1    1    2    0    0 +0.0000000000e+00 -0.0000000000e+00 -1.2359066000e+03 1.2392660632e+03 9.1188000000e+01 0.0000e+00 1.0000e+00
<mgrwt>
<rscale>  0 0.91188000E+02</rscale>
<asrwt>0</asrwt>
<pdfrwt beam="2">  1        2 0.19039816E+00 0.91188000E+02</pdfrwt>
<pdfrwt beam="1">  1       -2 0.25841988E-03 0.91188000E+02</pdfrwt>
<totfact> 0.24764434E+05</totfact>
</mgrwt>
</event>
<event>
 3      1 +4.2044000e+04 9.11880000e+01 7.54677100e-03 1.30000000e-01
        2 -1    0    0  501    0 +0.0000000000e+00 +0.0000000000e+00 +1.6489094365e+01 1.6489094365e+01 0.0000000000e+00 0.0000e+00 -1.0000e+00
       -2 -1    0    0    0  501 -0.0000000000e+00 -0.0000000000e+00 -1.2607198370e+02 1.2607198370e+02 0.0000000000e+00 0.0000e+00 1.0000e+00
       23  1    1    2    0    0 +0.0000000000e+00 +0.0000000000e+00 -1.0958288933e+02 1.4256107806e+02 9.1188000000e+01 0.0000e+00 -1.0000e+00
<mgrwt>
<rscale>  0 0.91188000E+02</rscale>
<asrwt>0</asrwt>
<pdfrwt beam="1">  1        2 0.25367837E-02 0.91188000E+02</pdfrwt>
<pdfrwt beam="2">  1       -2 0.19395690E-01 0.91188000E+02</pdfrwt>
<totfact> 0.74183181E+04</totfact>
</mgrwt>
</event>
<event>
 3      1 +4.2044000e+04 9.11880000e+01 7.54677100e-03 1.30000000e-01
       -2 -1    0    0    0  501 -0.0000000000e+00 +0.0000000000e+00 +6.7782456442e+01 6.7782456442e+01 0.0000000000e+00 0.0000e+00 1.0000e+00
        2 -1    0    0  501    0 +0.0000000000e+00 -0.0000000000e+00 -3.0668891998e+01 3.0668891998e+01 0.0000000000e+00 0.0000e+00 -1.0000e+00
       23  1    1    2    0    0 +0.0000000000e+00 -0.0000000000e+00 +3.7113564444e+01 9.8451348440e+01 9.1188000000e+01 0.0000e+00 1.0000e+00
<mgrwt>
<rscale>  0 0.91188000E+02</rscale>
<asrwt>0</asrwt>
<pdfrwt beam="2">  1        2 0.47182911E-02 0.91188000E+02</pdfrwt>
<pdfrwt beam="1">  1       -2 0.10428070E-01 0.91188000E+02</pdfrwt>
<totfact> 0.88955112E+04</totfact>
</mgrwt>
</event>
<event>
 3      1 +4.2044000e+04 9.11880000e+01 7.54677100e-03 1.30000000e-01
       -1 -1    0    0    0  501 -0.0000000000e+00 +0.0000000000e+00 +6.6399005794e+00 6.6399005794e+00 0.0000000000e+00 0.0000e+00 1.0000e+00
        1 -1    0    0  501    0 +0.0000000000e+00 -0.0000000000e+00 -3.1307891001e+02 3.1307891001e+02 0.0000000000e+00 0.0000e+00 -1.0000e+00
       23  1    1    2    0    0 +0.0000000000e+00 -0.0000000000e+00 -3.0643900943e+02 3.1971881059e+02 9.1188000000e+01 0.0000e+00 1.0000e+00
<mgrwt>
<rscale>  0 0.91188000E+02</rscale>
<asrwt>0</asrwt>
<pdfrwt beam="2">  1        1 0.48165987E-01 0.91188000E+02</pdfrwt>
<pdfrwt beam="1">  1       -1 0.10215231E-02 0.91188000E+02</pdfrwt>
<totfact> 0.12911931E+05</totfact>
</mgrwt>
</event>
<event>
 3      1 +4.2044000e+04 9.11880000e+01 7.54677100e-03 1.30000000e-01
       -3 -1    0    0    0  501 -0.0000000000e+00 +0.0000000000e+00 +1.9792141474e+00 1.9792141474e+00 0.0000000000e+00 0.0000e+00 1.0000e+00
        3 -1    0    0  501    0 +0.0000000000e+00 -0.0000000000e+00 -1.0503223407e+03 1.0503223407e+03 0.0000000000e+00 0.0000e+00 -1.0000e+00
       23  1    1    2    0    0 +0.0000000000e+00 -0.0000000000e+00 -1.0483431265e+03 1.0523015548e+03 9.1188000000e+01 0.0000e+00 1.0000e+00
<mgrwt>
<rscale>  0 0.91188000E+02</rscale>
<asrwt>0</asrwt>
<pdfrwt beam="2">  1        3 0.16158792E+00 0.91188000E+02</pdfrwt>
<pdfrwt beam="1">  1       -3 0.30449474E-03 0.91188000E+02</pdfrwt>
<totfact> 0.94944511E+03</totfact>
</mgrwt>
</event>
<event>
 3      1 +4.2044000e+04 9.11880000e+01 7.54677100e-03 1.30000000e-01
        2 -1    0    0  501    0 +0.0000000000e+00 +0.0000000000e+00 +3.4232563002e+01 3.4232563002e+01 0.0000000000e+00 0.0000e+00 -1.0000e+00
       -2 -1    0    0    0  501 -0.0000000000e+00 -0.0000000000e+00 -6.0726181556e+01 6.0726181556e+01 0.0000000000e+00 0.0000e+00 1.0000e+00
       23  1    1    2    0    0 +0.0000000000e+00 +0.0000000000e+00 -2.6493618554e+01 9.4958744558e+01 9.1188000000e+01 0.0000e+00 -1.0000e+00
<mgrwt>
<rscale>  0 0.91188000E+02</rscale>
<asrwt>0</asrwt>
<pdfrwt beam="1">  1        2 0.52665482E-02 0.91188000E+02</pdfrwt>
<pdfrwt beam="2">  1       -2 0.93424894E-02 0.91188000E+02</pdfrwt>
<totfact> 0.91572086E+04</totfact>
</mgrwt>
</event>
<event>
 3      1 +4.2044000e+04 9.11880000e+01 7.54677100e-03 1.30000000e-01
       -2 -1    0    0    0  501 -0.0000000000e+00 +0.0000000000e+00 +1.4897398765e+00 1.4897398765e+00 0.0000000000e+00 0.0000e+00 1.0000e+00
        2 -1    0    0  501    0 +0.0000000000e+00 -0.0000000000e+00 -1.3954200117e+03 1.3954200117e+03 0.0000000000e+00 0.0000e+00 -1.0000e+00
       23  1    1    2    0    0 +0.0000000000e+00 -0.0000000000e+00 -1.3939302719e+03 1.3969097516e+03 9.1188000000e+01 0.0000e+00 1.0000e+00
<mgrwt>
<rscale>  0 0.91188000E+02</rscale>
<asrwt>0</asrwt>
<pdfrwt beam="2">  1        2 0.21467987E+00 0.91188000E+02</pdfrwt>
<pdfrwt beam="1">  1       -2 0.22919089E-03 0.91188000E+02</pdfrwt>
<totfact> 0.24154383E+05</totfact>
</mgrwt>
</event>
<event>
 3      1 +4.2044000e+04 9.11880000e+01 7.54677100e-03 1.30000000e-01
        1 -1    0    0  501    0 +0.0000000000e+00 +0.0000000000e+00 +2.4673910016e+01 2.4673910016e+01 0.0000000000e+00 0.0000e+00 -1.0000e+00
       -1 -1    0    0    0  501 -0.0000000000e+00 -0.0000000000e+00 -8.4251455672e+01 8.4251455672e+01 0.0000000000e+00 0.0000e+00 1.0000e+00
       23  1    1    2    0    0 +0.0000000000e+00 +0.0000000000e+00 -5.9577545655e+01 1.0892536569e+02 9.1188000000e+01 0.0000e+00 -1.0000e+00
<mgrwt>
<rscale>  0 0.91188000E+02</rscale>
<asrwt>0</asrwt>
<pdfrwt beam="1">  1        1 0.37959861E-02 0.91188000E+02</pdfrwt>
<pdfrwt beam="2">  1       -1 0.12961762E-01 0.91188000E+02</pdfrwt>
<totfact> 0.83879177E+04</totfact>
</mgrwt>
</event>
<event>
 3      1 +4.2044000e+04 9.11880000e+01 7.54677100e-03 1.30000000e-01
       -1 -1    0    0    0  501 -0.0000000000e+00 +0.0000000000e+00 +2.7850235930e+00 2.7850235930e+00 0.0000000000e+00 0.0000e+00 1.0000e+00
        1 -1    0    0  501    0 +0.0000000000e+00 -0.0000000000e+00 -7.4642557471e+02 7.4642557471e+02 0.0000000000e+00 0.0000e+00 -1.0000e+00
       23  1    1    2    0    0 +0.0000000000e+00 -0.0000000000e+00 -7.4364055112e+02 7.4921059831e+02 9.1188000000e+01 0.0000e+00 1.0000e+00
<mgrwt>
<rscale>  0 0.91188000E+02</rscale>
<asrwt>0</asrwt>
<pdfrwt beam="2">  1        1 0.11483468E+00 0.91188000E+02</pdfrwt>
<pdfrwt beam="1">  1       -1 0.42846527E-03 0.91188000E+02</pdfrwt>
<totfact> 0.14189158E+05</totfact>
</mgrwt>
</event>
<event>
 3      1 +4.2044000e+04 9.11880000e+01 7.54677100e-03 1.30000000e-01
       -4 -1    0    0    0  501 -0.0000000000e+00 +0.0000000000e+00 +1.9867594983e+02 1.9867594983e+02 0.0000000000e+00 0.0000e+00 1.0000e+00
        4 -1    0    0  501    0 +0.0000000000e+00 -0.0000000000e+00 -1.0463334076e+01 1.0463334076e+01 0.0000000000e+00 0.0000e+00 -1.0000e+00
       23  1    1    2    0    0 +0.0000000000e+00 -0.0000000000e+00 +1.8821261575e+02 2.0913928390e+02 9.1188000000e+01 0.0000e+00 1.0000e+00
<mgrwt>
<rscale>  0 0.91188000E+02</rscale>
<asrwt>0</asrwt>
<pdfrwt beam="2">  1        4 0.16097439E-02 0.91188000E+02</pdfrwt>
<pdfrwt beam="1">  1       -4 0.30565528E-01 0.91188000E+02</pdfrwt>
<totfact> 0.21003523E+04</totfact>
</mgrwt>
</event>
<event>
 3      1 +4.2044000e+04 9.11880000e+01 7.54677100e-03 1.30000000e-01
        2 -1    0    0  501    0 +0.0000000000e+00 +0.0000000000e+00 +1.0544846314e+03 1.0544846314e+03 0.0000000000e+00 0.0000e+00 -1.0000e+00
       -2 -1    0    0    0  501 -0.0000000000e+00 -0.0000000000e+00 -1.9714017389e+00 1.9714017389e+00 0.0000000000e+00 0.0000e+00 1.0000e+00
       23  1    1    2    0    0 +0.0000000000e+00 +0.0000000000e+00 +1.0525132297e+03 1.0564560331e+03 9.1188000000e+01 0.0000e+00 -1.0000e+00
<mgrwt>
<rscale>  0 0.91188000E+02</rscale>
<asrwt>0</asrwt>
<pdfrwt beam="1">  1        2 0.16222795E+00 0.91188000E+02</pdfrwt>
<pdfrwt beam="2">  1       -2 0.30329342E-03 0.91188000E+02</pdfrwt>
<totfact> 0.25025034E+05</totfact>
</mgrwt>
</event>
<event>
 3      1 +4.2044000e+04 9.11880000e+01 7.54677100e-03 1.30000000e-01
        1 -1    0    0  501    0 +0.0000000000e+00 +0.0000000000e+00 +1.2799410105e+01 1.2799410105e+01 0.0000000000e+00 0.0000e+00 -1.0000e+00
       -1 -1    0    0    0  501 -0.0000000000e+00 -0.0000000000e+00 -1.6241473778e+02 1.6241473778e+02 0.0000000000e+00 0.0000e+00 1.0000e+00
       23  1    1    2    0    0 +0.0000000000e+00 +0.0000000000e+00 -1.4961532768e+02 1.7521414789e+02 9.1188000000e+01 0.0000e+00 -1.0000e+00
<mgrwt>
<rscale>  0 0.91188000E+02</rscale>
<asrwt>0</asrwt>
<pdfrwt beam="1">  1        1 0.19691399E-02 0.91188000E+02</pdfrwt>
<pdfrwt beam="2">  1       -1 0.24986884E-01 0.91188000E+02</pdfrwt>
<totfact> 0.73349511E+04</totfact>
</mgrwt>
</event>
<event>
 3      1 +4.2044000e+04 9.11880000e+01 7.54677100e-03 1.30000000e-01
        1 -1    0    0  501    0 +0.0000000000e+00 +0.0000000000e+00 +8.9584058728e+00 8.9584058728e+00 0.0000000000e+00 0.0000e+00 -1.0000e+00
       -1 -1    0    0    0  501 -0.0000000000e+00 -0.0000000000e+00 -2.3205164686e+02 2.3205164686e+02 0.0000000000e+00 0.0000e+00 1.0000e+00
       23  1    1    2    0    0 +0.0000000000e+00 +0.0000000000e+00 -2.2309324098e+02 2.4101005273e+02 9.1188000000e+01 0.0000e+00 -1.0000e+00
<mgrwt>
<rscale>  0 0.91188000E+02</rscale>
<asrwt>0</asrwt>
<pdfrwt beam="1">  1        1 0.13782163E-02 0.91188000E+02</pdfrwt>
<pdfrwt beam="2">  1       -1 0.35700253E-01 0.91188000E+02</pdfrwt>
<totfact> 0.66351780E+04</totfact>
</mgrwt>
</event>
<event>
 3      1 +4.2044000e+04 9.11880000e+01 7.54677100e-03 1.30000000e-01
       -4 -1    0    0    0  501 -0.0000000000e+00 +0.0000000000e+00 +2.3123476676e+00 2.3123476676e+00 0.0000000000e+00 0.0000e+00 1.0000e+00
        4 -1    0    0  501    0 +0.0000000000e+00 -0.0000000000e+00 -8.9900531186e+02 8.9900531186e+02 0.0000000000e+00 0.0000e+00 -1.0000e+00
       23  1    1    2    0    0 +0.0000000000e+00 -0.0000000000e+00 -8.9669296419e+02 9.0131765952e+02 9.1188000000e+01 0.0000e+00 1.0000e+00
<mgrwt>
<rscale>  0 0.91188000E+02</rscale>
<asrwt>0</asrwt>
<pdfrwt beam="2">  1        4 0.13830841E+00 0.91188000E+02</pdfrwt>
<pdfrwt beam="1">  1       -4 0.35574605E-03 0.91188000E+02</pdfrwt>
<totfact> 0.79326311E+03</totfact>
</mgrwt>
</event>
<event>
 3      1 +4.2044000e+04 9.11880000e+01 7.54677100e-03 1.30000000e-01
        2 -1    0    0  501    0 +0.0000000000e+00 +0.0000000000e+00 +4.8302601744e+02 4.8302601744e+02 0.0000000000e+00 0.0000e+00 -1.0000e+00
       -2 -1    0    0    0  501 -0.0000000000e+00 -0.0000000000e+00 -4.3037284969e+00 4.3037284969e+00 0.0000000000e+00 0.0000e+00 1.0000e+00
       23  1    1    2    0    0 +0.0000000000e+00 +0.0000000000e+00 +4.7872228894e+02 4.8732974593e+02 9.1188000000e+01 0.0000e+00 -1.0000e+00
<mgrwt>
<rscale>  0 0.91188000E+02</rscale>
<asrwt>0</asrwt>
<pdfrwt beam="1">  1        2 0.74311652E-01 0.91188000E+02</pdfrwt>
<pdfrwt beam="2">  1       -2 0.66211246E-03 0.91188000E+02</pdfrwt>
<totfact> 0.21299921E+05</totfact>
</mgrwt>
</event>
<event>
 3      1 +4.2044000e+04 9.11880000e+01 7.54677100e-03 1.30000000e-01
        1 -1    0    0  501    0 +0.0000000000e+00 +0.0000000000e+00 +2.6302515533e+02 2.6302515533e+02 0.0000000000e+00 0.0000e+00 -1.0000e+00
       -1 -1    0    0    0  501 -0.0000000000e+00 -0.0000000000e+00 -7.9034753667e+00 7.9034753667e+00 0.0000000000e+00 0.0000e+00 1.0000e+00
       23  1    1    2    0    0 +0.0000000000e+00 +0.0000000000e+00 +2.5512167997e+02 2.7092863070e+02 9.1188000000e+01 0.0000e+00 -1.0000e+00
<mgrwt>
<rscale>  0 0.91188000E+02</rscale>
<asrwt>0</asrwt>
<pdfrwt beam="1">  1        1 0.40465402E-01 0.91188000E+02</pdfrwt>
<pdfrwt beam="2">  1       -1 0.12159195E-02 0.91188000E+02</pdfrwt>
<totfact> 0.12486139E+05</totfact>
</mgrwt>
</event>
<event>
 3      1 +4.2044000e+04 9.11880000e+01 7.54677100e-03 1.30000000e-01
        2 -1    0    0  501    0 +0.0000000000e+00 +0.0000000000e+00 +8.4721133470e+02 8.4721133470e+02 0.0000000000e+00 0.0000e+00 -1.0000e+00
       -2 -1    0    0    0  501 -0.0000000000e+00 -0.0000000000e+00 -2.4537122567e+00 2.4537122567e+00 0.0000000000e+00 0.0000e+00 1.0000e+00
       23  1    1    2    0    0 +0.0000000000e+00 +0.0000000000e+00 +8.4475762244e+02 8.4966504696e+02 9.1188000000e+01 0.0000e+00 -1.0000e+00
<mgrwt>
<rscale>  0 0.91188000E+02</rscale>
<asrwt>0</asrwt>
<pdfrwt beam="1">  1        2 0.13033997E+00 0.91188000E+02</pdfrwt>
<pdfrwt beam="2">  1       -2 0.37749487E-03 0.91188000E+02</pdfrwt>
<totfact> 0.24592520E+05</totfact>
</mgrwt>
</event>
<event>
 3      1 +4.2044000e+04 9.11880000e+01 7.54677100e-03 1.30000000e-01
        2 -1    0    0  501    0 +0.0000000000e+00 +0.0000000000e+00 +3.4118957974e+03 3.4118957974e+03 0.0000000000e+00 0.0000e+00 1.0000e+00
       -2 -1    0    0    0  501 -0.0000000000e+00 -0.0000000000e+00 -6.0928379981e-01 6.0928379981e-01 0.0000000000e+00 0.0000e+00 -1.0000e+00
       23  1    1    2    0    0 +0.0000000000e+00 +0.0000000000e+00 +3.4112865136e+03 3.4125050812e+03 9.1188000000e+01 0.0000e+00 1.0000e+00
<mgrwt>
<rscale>  0 0.91188000E+02</rscale>
<asrwt>0</asrwt>
<pdfrwt beam="1">  1        2 0.52489175E+00 0.91188000E+02</pdfrwt>
<pdfrwt beam="2">  1       -2 0.93738701E-04 0.91188000E+02</pdfrwt>
<totfact> 0.69159185E+04</totfact>
</mgrwt>
</event>
<event>
 3      1 +4.2044000e+04 9.11880000e+01 7.54677100e-03 1.30000000e-01
        2 -1    0    0  501    0 +0.0000000000e+00 +0.0000000000e+00 +6.9100133442e+00 6.9100133442e+00 0.0000000000e+00 0.0000e+00 -1.0000e+00
       -2 -1    0    0    0  501 -0.0000000000e+00 -0.0000000000e+00 -3.0084063987e+02 3.0084063987e+02 0.0000000000e+00 0.0000e+00 1.0000e+00
       23  1    1    2    0    0 +0.0000000000e+00 +0.0000000000e+00 -2.9393062653e+02 3.0775065322e+02 9.1188000000e+01 0.0000e+00 -1.0000e+00
<mgrwt>
<rscale>  0 0.91188000E+02</rscale>
<asrwt>0</asrwt>
<pdfrwt beam="1">  1        2 0.10630792E-02 0.91188000E+02</pdfrwt>
<pdfrwt beam="2">  1       -2 0.46283164E-01 0.91188000E+02</pdfrwt>
<totfact> 0.50904992E+04</totfact>
</mgrwt>
</event>
<event>
 3      1 +4.2044000e+04 9.11880000e+01 7.54677100e-03 1.30000000e-01
        2 -1    0    0  501    0 +0.0000000000e+00 +0.0000000000e+00 +5.0583200416e+00 5.0583200416e+00 0.0000000000e+00 0.0000e+00 -1.0000e+00
       -2 -1    0    0    0  501 -0.0000000000e+00 -0.0000000000e+00 -4.1096902112e+02 4.1096902112e+02 0.0000000000e+00 0.0000e+00 1.0000e+00
       23  1    1    2    0    0 +0.0000000000e+00 +0.0000000000e+00 -4.0591070108e+02 4.1602734116e+02 9.1188000000e+01 0.0000e+00 -1.0000e+00
<mgrwt>
<rscale>  0 0.91188000E+02</rscale>
<asrwt>0</asrwt>
<pdfrwt beam="1">  1        2 0.77820293E-03 0.91188000E+02</pdfrwt>
<pdfrwt beam="2">  1       -2 0.63226016E-01 0.91188000E+02</pdfrwt>
<totfact> 0.41898351E+04</totfact>
</mgrwt>
</event>
<event>
 3      1 +4.2044000e+04 9.11880000e+01 7.54677100e-03 1.30000000e-01
       -2 -1    0    0    0  501 -0.0000000000e+00 +0.0000000000e+00 +5.5690804256e+00 5.5690804256e+00 0.0000000000e+00 0.0000e+00 1.0000e+00
        2 -1    0    0  501    0 +0.0000000000e+00 -0.0000000000e+00 -3.7327757496e+02 3.7327757496e+02 0.0000000000e+00 0.0000e+00 -1.0000e+00
       23  1    1    2    0    0 +0.0000000000e+00 -0.0000000000e+00 -3.6770849453e+02 3.7884665538e+02 9.1188000000e+01 0.0000e+00 1.0000e+00
<mgrwt>
<rscale>  0 0.91188000E+02</rscale>
<asrwt>0</asrwt>
<pdfrwt beam="2">  1        2 0.57427305E-01 0.91188000E+02</pdfrwt>
<pdfrwt beam="1">  1       -2 0.85678181E-03 0.91188000E+02</pdfrwt>
<totfact> 0.19464367E+05</totfact>
</mgrwt>
</event>
<event>
 3      1 +4.2044000e+04 9.11880000e+01 7.54677100e-03 1.30000000e-01
        1 -1    0    0  501    0 +0.0000000000e+00 +0.0000000000e+00 +9.6969642072e+00 9.6969642072e+00 0.0000000000e+00 0.0000e+00 -1.0000e+00
       -1 -1    0    0    0  501 -0.0000000000e+00 -0.0000000000e+00 -2.1437769508e+02 2.1437769508e+02 0.0000000000e+00 0.0000e+00 1.0000e+00
       23  1    1    2    0    0 +0.0000000000e+00 +0.0000000000e+00 -2.0468073087e+02 2.2407465929e+02 9.1188000000e+01 0.0000e+00 -1.0000e+00
<mgrwt>
<rscale>  0 0.91188000E+02</rscale>
<asrwt>0</asrwt>
<pdfrwt beam="1">  1        1 0.14918408E-02 0.91188000E+02</pdfrwt>
<pdfrwt beam="2">  1       -1 0.32981181E-01 0.91188000E+02</pdfrwt>
<totfact> 0.68002746E+04</totfact>
</mgrwt>
</event>
<event>
 3      1 +4.2044000e+04 9.11880000e+01 7.54677100e-03 1.30000000e-01
       -1 -1    0    0    0  501 -0.0000000000e+00 +0.0000000000e+00 +5.0780891734e+00 5.0780891734e+00 0.0000000000e+00 0.0000e+00 1.0000e+00
        1 -1    0    0  501    0 +0.0000000000e+00 -0.0000000000e+00 -4.0936910814e+02 4.0936910814e+02 0.0000000000e+00 0.0000e+00 -1.0000e+00
       23  1    1    2    0    0 +0.0000000000e+00 -0.0000000000e+00 -4.0429101897e+02 4.1444719732e+02 9.1188000000e+01 0.0000e+00 1.0000e+00
<mgrwt>
<rscale>  0 0.91188000E+02</rscale>
<asrwt>0</asrwt>
<pdfrwt beam="2">  1        1 0.62979861E-01 0.91188000E+02</pdfrwt>
<pdfrwt beam="1">  1       -1 0.78124451E-03 0.91188000E+02</pdfrwt>
<totfact> 0.13535429E+05</totfact>
</mgrwt>
</event>
<event>
 3      1 +4.2044000e+04 9.11880000e+01 7.54677100e-03 1.30000000e-01
       -1 -1    0    0    0  501 -0.0000000000e+00 +0.0000000000e+00 +6.1262869426e+00 6.1262869426e+00 0.0000000000e+00 0.0000e+00 1.0000e+00
        1 -1    0    0  501    0 +0.0000000000e+00 -0.0000000000e+00 -3.3932671706e+02 3.3932671706e+02 0.0000000000e+00 0.0000e+00 -1.0000e+00
       23  1    1    2    0    0 +0.0000000000e+00 -0.0000000000e+00 -3.3320043011e+02 3.4545300400e+02 9.1188000000e+01 0.0000e+00 1.0000e+00
<mgrwt>
<rscale>  0 0.91188000E+02</rscale>
<asrwt>0</asrwt>
<pdfrwt beam="2">  1        1 0.52204099E-01 0.91188000E+02</pdfrwt>
<pdfrwt beam="1">  1       -1 0.94250588E-03 0.91188000E+02</pdfrwt>
<totfact> 0.13105661E+05</totfact>
</mgrwt>
</event>
<event>
 3      1 +4.2044000e+04 9.11880000e+01 7.54677100e-03 1.30000000e-01
       -3 -1    0    0    0  501 -0.0000000000e+00 +0.0000000000e+00 +3.0929701874e+02 3.0929701874e+02 0.0000000000e+00 0.0000e+00 1.0000e+00
        3 -1    0    0  501    0 +0.0000000000e+00 -0.0000000000e+00 -6.7210891475e+00 6.7210891475e+00 0.0000000000e+00 0.0000e+00 -1.0000e+00
       23  1    1    2    0    0 +0.0000000000e+00 -0.0000000000e+00 +3.0257592959e+02 3.1601810788e+02 9.1188000000e+01 0.0000e+00 1.0000e+00
<mgrwt>
<rscale>  0 0.91188000E+02</rscale>
<asrwt>0</asrwt>
<pdfrwt beam="2">  1        3 0.10340140E-02 0.91188000E+02</pdfrwt>
<pdfrwt beam="1">  1       -3 0.47584146E-01 0.91188000E+02</pdfrwt>
<totfact> 0.23407946E+04</totfact>
</mgrwt>
</event>
<event>
 3      1 +4.2044000e+04 9.11880000e+01 7.54677100e-03 1.30000000e-01
        2 -1    0    0  501    0 +0.0000000000e+00 +0.0000000000e+00 +1.0520351891e+03 1.0520351891e+03 0.0000000000e+00 0.0000e+00 -1.0000e+00
       -2 -1    0    0    0  501 -0.0000000000e+00 -0.0000000000e+00 -1.9759917326e+00 1.9759917326e+00 0.0000000000e+00 0.0000e+00 1.0000e+00
       23  1    1    2    0    0 +0.0000000000e+00 +0.0000000000e+00 +1.0500591973e+03 1.0540111808e+03 9.1188000000e+01 0.0000e+00 -1.0000e+00
<mgrwt>
<rscale>  0 0.91188000E+02</rscale>
<asrwt>0</asrwt>
<pdfrwt beam="1">  1        2 0.16185112E+00 0.91188000E+02</pdfrwt>
<pdfrwt beam="2">  1       -2 0.30399957E-03 0.91188000E+02</pdfrwt>
<totfact> 0.25024767E+05</totfact>
</mgrwt>
</event>
<event>
 3      1 +4.2044000e+04 9.11880000e+01 7.54677100e-03 1.30000000e-01
        2 -1    0    0  501    0 +0.0000000000e+00 +0.0000000000e+00 +5.8988105328e+00 5.8988105328e+00 0.0000000000e+00 0.0000e+00 -1.0000e+00
       -2 -1    0    0    0  501 -0.0000000000e+00 -0.0000000000e+00 -3.5241220657e+02 3.5241220657e+02 0.0000000000e+00 0.0000e+00 1.0000e+00
       23  1    1    2    0    0 +0.0000000000e+00 +0.0000000000e+00 -3.4651339604e+02 3.5831101710e+02 9.1188000000e+01 0.0000e+00 -1.0000e+00
<mgrwt>
<rscale>  0 0.91188000E+02</rscale>
<asrwt>0</asrwt>
<pdfrwt beam="1">  1        2 0.90750910E-03 0.91188000E+02</pdfrwt>
<pdfrwt beam="2">  1       -2 0.54217275E-01 0.91188000E+02</pdfrwt>
<totfact> 0.46342488E+04</totfact>
</mgrwt>
</event>
<event>
 3      1 +4.2044000e+04 9.11880000e+01 7.54677100e-03 1.30000000e-01
        3 -1    0    0  501    0 +0.0000000000e+00 +0.0000000000e+00 +7.8771469774e+00 7.8771469774e+00 0.0000000000e+00 0.0000e+00 -1.0000e+00
       -3 -1    0    0    0  501 -0.0000000000e+00 -0.0000000000e+00 -2.6390428438e+02 2.6390428438e+02 0.0000000000e+00 0.0000e+00 1.0000e+00
       23  1    1    2    0    0 +0.0000000000e+00 +0.0000000000e+00 -2.5602713740e+02 2.7178143135e+02 9.1188000000e+01 0.0000e+00 -1.0000e+00
<mgrwt>
<rscale>  0 0.91188000E+02</rscale>
<asrwt>0</asrwt>
<pdfrwt beam="1">  1        3 0.12118687E-02 0.91188000E+02</pdfrwt>
<pdfrwt beam="2">  1       -3 0.40600661E-01 0.91188000E+02</pdfrwt>
<totfact> 0.25151627E+04</totfact>
</mgrwt>
</event>
<event>
 3      1 +4.2044000e+04 9.11880000e+01 7.54677100e-03 1.30000000e-01
        1 -1    0    0  501    0 +0.0000000000e+00 +0.0000000000e+00 +2.0790400135e+02 2.0790400135e+02 0.0000000000e+00 0.0000e+00 -1.0000e+00
       -1 -1    0    0    0  501 -0.0000000000e+00 -0.0000000000e+00 -9.9989072961e+00 9.9989072961e+00 0.0000000000e+00 0.0000e+00 1.0000e+00
       23  1    1    2    0    0 +0.0000000000e+00 +0.0000000000e+00 +1.9790509405e+02 2.1790290865e+02 9.1188000000e+01 0.0000e+00 -1.0000e+00
<mgrwt>
<rscale>  0 0.91188000E+02</rscale>
<asrwt>0</asrwt>
<pdfrwt beam="1">  1        1 0.31985228E-01 0.91188000E+02</pdfrwt>
<pdfrwt beam="2">  1       -1 0.15382936E-02 0.91188000E+02</pdfrwt>
<totfact> 0.11926182E+05</totfact>
</mgrwt>
</event>
<event>
 3      1 +4.2044000e+04 9.11880000e+01 7.54677100e-03 1.30000000e-01
        1 -1    0    0  501    0 +0.0000000000e+00 +0.0000000000e+00 +2.1916885993e+00 2.1916885993e+00 0.0000000000e+00 0.0000e+00 -1.0000e+00
       -1 -1    0    0    0  501 -0.0000000000e+00 -0.0000000000e+00 -9.4849826600e+02 9.4849826600e+02 0.0000000000e+00 0.0000e+00 1.0000e+00
       23  1    1    2    0    0 +0.0000000000e+00 +0.0000000000e+00 -9.4630657740e+02 9.5068995460e+02 9.1188000000e+01 0.0000e+00 -1.0000e+00
<mgrwt>
<rscale>  0 0.91188000E+02</rscale>
<asrwt>0</asrwt>
<pdfrwt beam="1">  1        1 0.33718306E-03 0.91188000E+02</pdfrwt>
<pdfrwt beam="2">  1       -1 0.14592272E+00 0.91188000E+02</pdfrwt>
<totfact> 0.27283946E+04</totfact>
</mgrwt>
</event>
<event>
 3      1 +4.2044000e+04 9.11880000e+01 7.54677100e-03 1.30000000e-01
        1 -1    0    0  501    0 +0.0000000000e+00 +0.0000000000e+00 +1.7193663987e+02 1.7193663987e+02 0.0000000000e+00 0.0000e+00 -1.0000e+00
       -1 -1    0    0    0  501 -0.0000000000e+00 -0.0000000000e+00 -1.2090574979e+01 1.2090574979e+01 0.0000000000e+00 0.0000e+00 1.0000e+00
       23  1    1    2    0    0 +0.0000000000e+00 +0.0000000000e+00 +1.5984606489e+02 1.8402721485e+02 9.1188000000e+01 0.0000e+00 -1.0000e+00
<mgrwt>
<rscale>  0 0.91188000E+02</rscale>
<asrwt>0</asrwt>
<pdfrwt beam="1">  1        1 0.26451789E-01 0.91188000E+02</pdfrwt>
<pdfrwt beam="2">  1       -1 0.18600886E-02 0.91188000E+02</pdfrwt>
<totfact> 0.11498294E+05</totfact>
</mgrwt>
</event>
<event>
 3      1 +4.2044000e+04 9.11880000e+01 7.54677100e-03 1.30000000e-01
        1 -1    0    0  501    0 +0.0000000000e+00 +0.0000000000e+00 +1.1703652972e+02 1.1703652972e+02 0.0000000000e+00 0.0000e+00 -1.0000e+00
       -1 -1    0    0    0  501 -0.0000000000e+00 -0.0000000000e+00 -1.7762085401e+01 1.7762085401e+01 0.0000000000e+00 0.0000e+00 1.0000e+00
       23  1    1    2    0    0 +0.0000000000e+00 +0.0000000000e+00 +9.9274444322e+01 1.3479861512e+02 9.1188000000e+01 0.0000e+00 -1.0000e+00
<mgrwt>
<rscale>  0 0.91188000E+02</rscale>
<asrwt>0</asrwt>
<pdfrwt beam="1">  1        1 0.18005620E-01 0.91188000E+02</pdfrwt>
<pdfrwt beam="2">  1       -1 0.27326286E-02 0.91188000E+02</pdfrwt>
<totfact> 0.10723751E+05</totfact>
</mgrwt>
</event>
<event>
 3      1 +4.2044000e+04 9.11880000e+01 7.54677100e-03 1.30000000e-01
       -3 -1    0    0    0  501 -0.0000000000e+00 +0.0000000000e+00 +5.3161116930e+02 5.3161116930e+02 0.0000000000e+00 0.0000e+00 1.0000e+00
        3 -1    0    0  501    0 +0.0000000000e+00 -0.0000000000e+00 -3.9104009774e+00 3.9104009774e+00 0.0000000000e+00 0.0000e+00 -1.0000e+00
       23  1    1    2    0    0 +0.0000000000e+00 -0.0000000000e+00 +5.2770076832e+02 5.3552157027e+02 9.1188000000e+01 0.0000e+00 1.0000e+00
<mgrwt>
<rscale>  0 0.91188000E+02</rscale>
<asrwt>0</asrwt>
<pdfrwt beam="2">  1        3 0.60160057E-03 0.91188000E+02</pdfrwt>
<pdfrwt beam="1">  1       -3 0.81786277E-01 0.91188000E+02</pdfrwt>
<totfact> 0.17055346E+04</totfact>
</mgrwt>
</event>
<event>
 3      1 +4.2044000e+04 9.11880000e+01 7.54677100e-03 1.30000000e-01
        2 -1    0    0  501    0 +0.0000000000e+00 +0.0000000000e+00 +1.8716584735e+03 1.8716584735e+03 0.0000000000e+00 0.0000e+00 -1.0000e+00
       -2 -1    0    0    0  501 -0.0000000000e+00 -0.0000000000e+00 -1.1106795740e+00 1.1106795740e+00 0.0000000000e+00 0.0000e+00 1.0000e+00
       23  1    1    2    0    0 +0.0000000000e+00 +0.0000000000e+00 +1.8705477940e+03 1.8727691531e+03 9.1188000000e+01 0.0000e+00 -1.0000e+00
<mgrwt>
<rscale>  0 0.91188000E+02</rscale>
<asrwt>0</asrwt>
<pdfrwt beam="1">  1        2 0.28794493E+00 0.91188000E+02</pdfrwt>
<pdfrwt beam="2">  1       -2 0.17087528E-03 0.91188000E+02</pdfrwt>
<totfact> 0.20820013E+05</totfact>
</mgrwt>
</event>
<event>
 3      1 +4.2044000e+04 9.11880000e+01 7.54677100e-03 1.30000000e-01
       -1 -1    0    0    0  501 -0.0000000000e+00 +0.0000000000e+00 +6.6758545841e+00 6.6758545841e+00 0.0000000000e+00 0.0000e+00 1.0000e+00
        1 -1    0    0  501    0 +0.0000000000e+00 -0.0000000000e+00 -3.1139276775e+02 3.1139276775e+02 0.0000000000e+00 0.0000e+00 -1.0000e+00
       23  1    1    2    0    0 +0.0000000000e+00 -0.0000000000e+00 -3.0471691316e+02 3.1806862233e+02 9.1188000000e+01 0.0000e+00 1.0000e+00
<mgrwt>
<rscale>  0 0.91188000E+02</rscale>
<asrwt>0</asrwt>
<pdfrwt beam="2">  1        1 0.47906574E-01 0.91188000E+02</pdfrwt>
<pdfrwt beam="1">  1       -1 0.10270547E-02 0.91188000E+02</pdfrwt>
<totfact> 0.12898814E+05</totfact>
</mgrwt>
</event>
<event>
 3      1 +4.2044000e+04 9.11880000e+01 7.54677100e-03 1.30000000e-01
        2 -1    0    0  501    0 +0.0000000000e+00 +0.0000000000e+00 +1.6276191603e+03 1.6276191603e+03 0.0000000000e+00 0.0000e+00 -1.0000e+00
       -2 -1    0    0    0  501 -0.0000000000e+00 -0.0000000000e+00 -1.2772108407e+00 1.2772108407e+00 0.0000000000e+00 0.0000e+00 1.0000e+00
       23  1    1    2    0    0 +0.0000000000e+00 +0.0000000000e+00 +1.6263419495e+03 1.6288963711e+03 9.1188000000e+01 0.0000e+00 -1.0000e+00
<mgrwt>
<rscale>  0 0.91188000E+02</rscale>
<asrwt>0</asrwt>
<pdfrwt beam="1">  1        2 0.25040129E+00 0.91188000E+02</pdfrwt>
<pdfrwt beam="2">  1       -2 0.19649528E-03 0.91188000E+02</pdfrwt>
<totfact> 0.22754645E+05</totfact>
</mgrwt>
</event>
<event>
 3      1 +4.2044000e+04 9.11880000e+01 7.54677100e-03 1.30000000e-01
       -1 -1    0    0    0  501 -0.0000000000e+00 +0.0000000000e+00 +1.2025712894e+02 1.2025712894e+02 0.0000000000e+00 0.0000e+00 1.0000e+00
        1 -1    0    0  501    0 +0.0000000000e+00 -0.0000000000e+00 -1.7286400019e+01 1.7286400019e+01 0.0000000000e+00 0.0000e+00 -1.0000e+00
       23  1    1    2    0    0 +0.0000000000e+00 -0.0000000000e+00 +1.0297072892e+02 1.3754352896e+02 9.1188000000e+01 0.0000e+00 1.0000e+00
<mgrwt>
<rscale>  0 0.91188000E+02</rscale>
<asrwt>0</asrwt>
<pdfrwt beam="2">  1        1 0.26594462E-02 0.91188000E+02</pdfrwt>
<pdfrwt beam="1">  1       -1 0.18501096E-01 0.91188000E+02</pdfrwt>
<totfact> 0.78471453E+04</totfact>
</mgrwt>
</event>
<event>
 3      1 +4.2044000e+04 9.11880000e+01 7.54677100e-03 1.30000000e-01
       -1 -1    0    0    0  501 -0.0000000000e+00 +0.0000000000e+00 +1.1509223849e+01 1.1509223849e+01 0.0000000000e+00 0.0000e+00 1.0000e+00
        1 -1    0    0  501    0 +0.0000000000e+00 -0.0000000000e+00 -1.8062146182e+02 1.8062146182e+02 0.0000000000e+00 0.0000e+00 -1.0000e+00
       23  1    1    2    0    0 +0.0000000000e+00 -0.0000000000e+00 -1.6911223797e+02 1.9213068567e+02 9.1188000000e+01 0.0000e+00 1.0000e+00
<mgrwt>
<rscale>  0 0.91188000E+02</rscale>
<asrwt>0</asrwt>
<pdfrwt beam="2">  1        1 0.27787915E-01 0.91188000E+02</pdfrwt>
<pdfrwt beam="1">  1       -1 0.17706499E-02 0.91188000E+02</pdfrwt>
<totfact> 0.11606448E+05</totfact>
</mgrwt>
</event>
<event>
 3      1 +4.2044000e+04 9.11880000e+01 7.54677100e-03 1.30000000e-01
        2 -1    0    0  501    0 +0.0000000000e+00 +0.0000000000e+00 +9.4472495006e+02 9.4472495006e+02 0.0000000000e+00 0.0000e+00 -1.0000e+00
       -2 -1    0    0    0  501 -0.0000000000e+00 -0.0000000000e+00 -2.2004423995e+00 2.2004423995e+00 0.0000000000e+00 0.0000e+00 1.0000e+00
       23  1    1    2    0    0 +0.0000000000e+00 +0.0000000000e+00 +9.4252450766e+02 9.4692539246e+02 9.1188000000e+01 0.0000e+00 -1.0000e+00
<mgrwt>
<rscale>  0 0.91188000E+02</rscale>
<asrwt>0</asrwt>
<pdfrwt beam="1">  1        2 0.14534198E+00 0.91188000E+02</pdfrwt>
<pdfrwt beam="2">  1       -2 0.33853035E-03 0.91188000E+02</pdfrwt>
<totfact> 0.24903695E+05</totfact>
</mgrwt>
</event>
<event>
 3      1 +4.2044000e+04 9.11880000e+01 7.54677100e-03 1.30000000e-01
        1 -1    0    0  501    0 +0.0000000000e+00 +0.0000000000e+00 +1.3667773191e+03 1.3667773191e+03 0.0000000000e+00 0.0000e+00 -1.0000e+00
       -1 -1    0    0    0  501 -0.0000000000e+00 -0.0000000000e+00 -1.5209594182e+00 1.5209594182e+00 0.0000000000e+00 0.0000e+00 1.0000e+00
       23  1    1    2    0    0 +0.0000000000e+00 +0.0000000000e+00 +1.3652563597e+03 1.3682982785e+03 9.1188000000e+01 0.0000e+00 -1.0000e+00
<mgrwt>
<rscale>  0 0.91188000E+02</rscale>
<asrwt>0</asrwt>
<pdfrwt beam="1">  1        1 0.21027245E+00 0.91188000E+02</pdfrwt>
<pdfrwt beam="2">  1       -1 0.23399485E-03 0.91188000E+02</pdfrwt>
<totfact> 0.11830364E+05</totfact>
</mgrwt>
</event>
<event>
 3      1 +4.2044000e+04 9.11880000e+01 7.54677100e-03 1.30000000e-01
        1 -1    0    0  501    0 +0.0000000000e+00 +0.0000000000e+00 +1.1124618204e+03 1.1124618204e+03 0.0000000000e+00 0.0000e+00 -1.0000e+00
       -1 -1    0    0    0  501 -0.0000000000e+00 -0.0000000000e+00 -1.8686599377e+00 1.8686599377e+00 0.0000000000e+00 0.0000e+00 1.0000e+00
       23  1    1    2    0    0 +0.0000000000e+00 +0.0000000000e+00 +1.1105931604e+03 1.1143304803e+03 9.1188000000e+01 0.0000e+00 -1.0000e+00
<mgrwt>
<rscale>  0 0.91188000E+02</rscale>
<asrwt>0</asrwt>
<pdfrwt beam="1">  1        1 0.17114744E+00 0.91188000E+02</pdfrwt>
<pdfrwt beam="2">  1       -1 0.28748703E-03 0.91188000E+02</pdfrwt>
<totfact> 0.13140691E+05</totfact>
</mgrwt>
</event>
<event>
 3      1 +4.2044000e+04 9.11880000e+01 7.54677100e-03 1.30000000e-01
       -2 -1    0    0    0  501 -0.0000000000e+00 +0.0000000000e+00 +4.8703616209e-01 4.8703616209e-01 0.0000000000e+00 0.0000e+00 1.0000e+00
        2 -1    0    0  501    0 +0.0000000000e+00 -0.0000000000e+00 -4.2682925782e+03 4.2682925782e+03 0.0000000000e+00 0.0000e+00 -1.0000e+00
       23  1    1    2    0    0 +0.0000000000e+00 -0.0000000000e+00 -4.2678055421e+03 4.2687796144e+03 9.1188000000e+01 0.0000e+00 1.0000e+00
<mgrwt>
<rscale>  0 0.91188000E+02</rscale>
<asrwt>0</asrwt>
<pdfrwt beam="2">  1        2 0.65662333E+00 0.91188000E+02</pdfrwt>
<pdfrwt beam="1">  1       -2 0.74932870E-04 0.91188000E+02</pdfrwt>
<totfact> 0.23286057E+04</totfact>
</mgrwt>
</event>
<event>
 3      1 +4.2044000e+04 9.11880000e+01 7.54677100e-03 1.30000000e-01
        2 -1    0    0  501    0 +0.0000000000e+00 +0.0000000000e+00 +8.3268199192e+02 8.3268199192e+02 0.0000000000e+00 0.0000e+00 -1.0000e+00
       -2 -1    0    0    0  501 -0.0000000000e+00 -0.0000000000e+00 -2.4965267127e+00 2.4965267127e+00 0.0000000000e+00 0.0000e+00 1.0000e+00
       23  1    1    2    0    0 +0.0000000000e+00 +0.0000000000e+00 +8.3018546521e+02 8.3517851864e+02 9.1188000000e+01 0.0000e+00 -1.0000e+00
<mgrwt>
<rscale>  0 0.91188000E+02</rscale>
<asrwt>0</asrwt>
<pdfrwt beam="1">  1        2 0.12810470E+00 0.91188000E+02</pdfrwt>
<pdfrwt beam="2">  1       -2 0.38408170E-03 0.91188000E+02</pdfrwt>
<totfact> 0.24528330E+05</totfact>
</mgrwt>
</event>
<event>
 3      1 +4.2044000e+04 9.11880000e+01 7.54677100e-03 1.30000000e-01
        2 -1    0    0  501    0 +0.0000000000e+00 +0.0000000000e+00 +2.2448291121e+03 2.2448291121e+03 0.0000000000e+00 0.0000e+00 -1.0000e+00
       -2 -1    0    0    0  501 -0.0000000000e+00 -0.0000000000e+00 -9.2604502711e-01 9.2604502711e-01 0.0000000000e+00 0.0000e+00 1.0000e+00
       23  1    1    2    0    0 +0.0000000000e+00 +0.0000000000e+00 +2.2439030671e+03 2.2457551572e+03 9.1188000000e+01 0.0000e+00 -1.0000e+00
<mgrwt>
<rscale>  0 0.91188000E+02</rscale>
<asrwt>0</asrwt>
<pdfrwt beam="1">  1        2 0.34535397E+00 0.91188000E+02</pdfrwt>
<pdfrwt beam="2">  1       -2 0.14247026E-03 0.91188000E+02</pdfrwt>
<totfact> 0.17347996E+05</totfact>
</mgrwt>
</event>
<event>
 3      1 +4.2044000e+04 9.11880000e+01 7.54677100e-03 1.30000000e-01
        4 -1    0    0  501    0 +0.0000000000e+00 +0.0000000000e+00 +1.9516741234e+01 1.9516741234e+01 0.0000000000e+00 0.0000e+00 -1.0000e+00
       -4 -1    0    0    0  501 -0.0000000000e+00 -0.0000000000e+00 -1.0651434125e+02 1.0651434125e+02 0.0000000000e+00 0.0000e+00 1.0000e+00
       23  1    1    2    0    0 +0.0000000000e+00 +0.0000000000e+00 -8.6997600019e+01 1.2603108249e+02 9.1188000000e+01 0.0000e+00 -1.0000e+00
<mgrwt>
<rscale>  0 0.91188000E+02</rscale>
<asrwt>0</asrwt>
<pdfrwt beam="1">  1        4 0.30025756E-02 0.91188000E+02</pdfrwt>
<pdfrwt beam="2">  1       -4 0.16386821E-01 0.91188000E+02</pdfrwt>
<totfact> 0.24927000E+04</totfact>
</mgrwt>
</event>
<event>
 3      1 +4.2044000e+04 9.11880000e+01 7.54677100e-03 1.30000000e-01
       -2 -1    0    0    0  501 -0.0000000000e+00 +0.0000000000e+00 +4.9570823566e+00 4.9570823566e+00 0.0000000000e+00 0.0000e+00 -1.0000e+00
        2 -1    0    0  501    0 +0.0000000000e+00 -0.0000000000e+00 -4.1936217445e+02 4.1936217445e+02 0.0000000000e+00 0.0000e+00 1.0000e+00
       23  1    1    2    0    0 +0.0000000000e+00 -0.0000000000e+00 -4.1440509209e+02 4.2431925681e+02 9.1188000000e+01 0.0000e+00 -1.0000e+00
<mgrwt>
<rscale>  0 0.91188000E+02</rscale>
<asrwt>0</asrwt>
<pdfrwt beam="2">  1        2 0.64517243E-01 0.91188000E+02</pdfrwt>
<pdfrwt beam="1">  1       -2 0.76262822E-03 0.91188000E+02</pdfrwt>
<totfact> 0.20293641E+05</totfact>
</mgrwt>
</event>
<event>
 3      1 +4.2044000e+04 9.11880000e+01 7.54677100e-03 1.30000000e-01
       -2 -1    0    0    0  501 -0.0000000000e+00 +0.0000000000e+00 +1.6848490536e+01 1.6848490536e+01 0.0000000000e+00 0.0000e+00 1.0000e+00
        2 -1    0    0  501    0 +0.0000000000e+00 -0.0000000000e+00 -1.2338273459e+02 1.2338273459e+02 0.0000000000e+00 0.0000e+00 -1.0000e+00
       23  1    1    2    0    0 +0.0000000000e+00 -0.0000000000e+00 -1.0653424405e+02 1.4023122513e+02 9.1188000000e+01 0.0000e+00 1.0000e+00
<mgrwt>
<rscale>  0 0.91188000E+02</rscale>
<asrwt>0</asrwt>
<pdfrwt beam="2">  1        2 0.18981959E-01 0.91188000E+02</pdfrwt>
<pdfrwt beam="1">  1       -2 0.25920755E-02 0.91188000E+02</pdfrwt>
<totfact> 0.13098737E+05</totfact>
</mgrwt>
</event>
<event>
 3      1 +4.2044000e+04 9.11880000e+01 7.54677100e-03 1.30000000e-01
       -3 -1    0    0    0  501 -0.0000000000e+00 +0.0000000000e+00 +8.0778037678e+02 8.0778037678e+02 0.0000000000e+00 0.0000e+00 1.0000e+00
        3 -1    0    0  501    0 +0.0000000000e+00 -0.0000000000e+00 -2.5734876654e+00 2.5734876654e+00 0.0000000000e+00 0.0000e+00 -1.0000e+00
       23  1    1    2    0    0 +0.0000000000e+00 -0.0000000000e+00 +8.0520688912e+02 8.1035386445e+02 9.1188000000e+01 0.0000e+00 1.0000e+00
<mgrwt>
<rscale>  0 0.91188000E+02</rscale>
<asrwt>0</asrwt>
<pdfrwt beam="2">  1        3 0.39592182E-03 0.91188000E+02</pdfrwt>
<pdfrwt beam="1">  1       -3 0.12427370E+00 0.91188000E+02</pdfrwt>
<totfact> 0.12228067E+04</totfact>
</mgrwt>
</event>
<event>
 3      1 +4.2044000e+04 9.11880000e+01 7.54677100e-03 1.30000000e-01
       -3 -1    0    0    0  501 -0.0000000000e+00 +0.0000000000e+00 +1.4459178738e+02 1.4459178738e+02 0.0000000000e+00 0.0000e+00 -1.0000e+00
        3 -1    0    0  501    0 +0.0000000000e+00 -0.0000000000e+00 -1.4377115559e+01 1.4377115559e+01 0.0000000000e+00 0.0000e+00 1.0000e+00
       23  1    1    2    0    0 +0.0000000000e+00 -0.0000000000e+00 +1.3021467182e+02 1.5896890294e+02 9.1188000000e+01 0.0000e+00 -1.0000e+00
<mgrwt>
<rscale>  0 0.91188000E+02</rscale>
<asrwt>0</asrwt>
<pdfrwt beam="2">  1        3 0.22118640E-02 0.91188000E+02</pdfrwt>
<pdfrwt beam="1">  1       -3 0.22244889E-01 0.91188000E+02</pdfrwt>
<totfact> 0.30757767E+04</totfact>
</mgrwt>
</event>
<event>
 3      1 +4.2044000e+04 9.11880000e+01 7.54677100e-03 1.30000000e-01
       -2 -1    0    0    0  501 -0.0000000000e+00 +0.0000000000e+00 +7.3124694350e+01 7.3124694350e+01 0.0000000000e+00 0.0000e+00 -1.0000e+00
        2 -1    0    0  501    0 +0.0000000000e+00 -0.0000000000e+00 -2.8428328549e+01 2.8428328549e+01 0.0000000000e+00 0.0000e+00 1.0000e+00
       23  1    1    2    0    0 +0.0000000000e+00 -0.0000000000e+00 +4.4696365801e+01 1.0155302290e+02 9.1188000000e+01 0.0000e+00 -1.0000e+00
<mgrwt>
<rscale>  0 0.91188000E+02</rscale>
<asrwt>0</asrwt>
<pdfrwt beam="2">  1        2 0.43735890E-02 0.91188000E+02</pdfrwt>
<pdfrwt beam="1">  1       -2 0.11249953E-01 0.91188000E+02</pdfrwt>
<totfact> 0.87165432E+04</totfact>
</mgrwt>
</event>
<event>
 3      1 +4.2044000e+04 9.11880000e+01 7.54677100e-03 1.30000000e-01
       -1 -1    0    0    0  501 -0.0000000000e+00 +0.0000000000e+00 +8.7604552833e+01 8.7604552833e+01 0.0000000000e+00 0.0000e+00 1.0000e+00
        1 -1    0    0  501    0 +0.0000000000e+00 -0.0000000000e+00 -2.3729506844e+01 2.3729506844e+01 0.0000000000e+00 0.0000e+00 -1.0000e+00
       23  1    1    2    0    0 +0.0000000000e+00 -0.0000000000e+00 +6.3875045990e+01 1.1133405968e+02 9.1188000000e+01 0.0000e+00 1.0000e+00
<mgrwt>
<rscale>  0 0.91188000E+02</rscale>
<asrwt>0</asrwt>
<pdfrwt beam="2">  1        1 0.36506934E-02 0.91188000E+02</pdfrwt>
<pdfrwt beam="1">  1       -1 0.13477623E-01 0.91188000E+02</pdfrwt>
<totfact> 0.83311459E+04</totfact>
</mgrwt>
</event>
<event>
 3      1 +4.2044000e+04 9.11880000e+01 7.54677100e-03 1.30000000e-01
       -3 -1    0    0    0  501 -0.0000000000e+00 +0.0000000000e+00 +2.3282713403e+00 2.3282713403e+00 0.0000000000e+00 0.0000e+00 1.0000e+00
        3 -1    0    0  501    0 +0.0000000000e+00 -0.0000000000e+00 -8.9285677318e+02 8.9285677318e+02 0.0000000000e+00 0.0000e+00 -1.0000e+00
       23  1    1    2    0    0 +0.0000000000e+00 -0.0000000000e+00 -8.9052850184e+02 8.9518504452e+02 9.1188000000e+01 0.0000e+00 1.0000e+00
<mgrwt>
<rscale>  0 0.91188000E+02</rscale>
<asrwt>0</asrwt>
<pdfrwt beam="2">  1        3 0.13736260E+00 0.91188000E+02</pdfrwt>
<pdfrwt beam="1">  1       -3 0.35819555E-03 0.91188000E+02</pdfrwt>
<totfact> 0.11181915E+04</totfact>
</mgrwt>
</event>
<event>
 3      1 +4.2044000e+04 9.11880000e+01 7.54677100e-03 1.30000000e-01
        3 -1    0    0  501    0 +0.0000000000e+00 +0.0000000000e+00 +4.8806606124e+02 4.8806606124e+02 0.0000000000e+00 0.0000e+00 -1.0000e+00
       -3 -1    0    0    0  501 -0.0000000000e+00 -0.0000000000e+00 -4.2592857834e+00 4.2592857834e+00 0.0000000000e+00 0.0000e+00 1.0000e+00
       23  1    1    2    0    0 +0.0000000000e+00 +0.0000000000e+00 +4.8380677546e+02 4.9232534702e+02 9.1188000000e+01 0.0000e+00 -1.0000e+00
<mgrwt>
<rscale>  0 0.91188000E+02</rscale>
<asrwt>0</asrwt>
<pdfrwt beam="1">  1        3 0.75087042E-01 0.91188000E+02</pdfrwt>
<pdfrwt beam="2">  1       -3 0.65527512E-03 0.91188000E+02</pdfrwt>
<totfact> 0.18093451E+04</totfact>
</mgrwt>
</event>
<event>
 3      1 +4.2044000e+04 9.11880000e+01 7.54677100e-03 1.30000000e-01
       -4 -1    0    0    0  501 -0.0000000000e+00 +0.0000000000e+00 +5.4507876089e+01 5.4507876089e+01 0.0000000000e+00 0.0000e+00 1.0000e+00
        4 -1    0    0  501    0 +0.0000000000e+00 -0.0000000000e+00 -3.8137843283e+01 3.8137843283e+01 0.0000000000e+00 0.0000e+00 -1.0000e+00
       23  1    1    2    0    0 +0.0000000000e+00 -0.0000000000e+00 +1.6370032806e+01 9.2645719373e+01 9.1188000000e+01 0.0000e+00 1.0000e+00
<mgrwt>
<rscale>  0 0.91188000E+02</rscale>
<asrwt>0</asrwt>
<pdfrwt beam="2">  1        4 0.58673605E-02 0.91188000E+02</pdfrwt>
<pdfrwt beam="1">  1       -4 0.83858270E-02 0.91188000E+02</pdfrwt>
<totfact> 0.26913181E+04</totfact>
</mgrwt>
</event>
<event>
 3      1 +4.2044000e+04 9.11880000e+01 7.54677100e-03 1.30000000e-01
       -1 -1    0    0    0  501 -0.0000000000e+00 +0.0000000000e+00 +1.4589198526e+01 1.4589198526e+01 0.0000000000e+00 0.0000e+00 1.0000e+00
        1 -1    0    0  501    0 +0.0000000000e+00 -0.0000000000e+00 -1.4248985867e+02 1.4248985867e+02 0.0000000000e+00 0.0000e+00 -1.0000e+00
       23  1    1    2    0    0 +0.0000000000e+00 -0.0000000000e+00 -1.2790066014e+02 1.5707905719e+02 9.1188000000e+01 0.0000e+00 1.0000e+00
<mgrwt>
<rscale>  0 0.91188000E+02</rscale>
<asrwt>0</asrwt>
<pdfrwt beam="2">  1        1 0.21921516E-01 0.91188000E+02</pdfrwt>
<pdfrwt beam="1">  1       -1 0.22444922E-02 0.91188000E+02</pdfrwt>
<totfact> 0.11104794E+05</totfact>
</mgrwt>
</event>
<event>
 3      1 +4.2044000e+04 9.11880000e+01 7.54677100e-03 1.30000000e-01
       -1 -1    0    0    0  501 -0.0000000000e+00 +0.0000000000e+00 +2.7214873955e+00 2.7214873955e+00 0.0000000000e+00 0.0000e+00 1.0000e+00
        1 -1    0    0  501    0 +0.0000000000e+00 -0.0000000000e+00 -7.6385172294e+02 7.6385172294e+02 0.0000000000e+00 0.0000e+00 -1.0000e+00
       23  1    1    2    0    0 +0.0000000000e+00 -0.0000000000e+00 -7.6113023555e+02 7.6657321034e+02 9.1188000000e+01 0.0000e+00 1.0000e+00
<mgrwt>
<rscale>  0 0.91188000E+02</rscale>
<asrwt>0</asrwt>
<pdfrwt beam="2">  1        1 0.11751565E+00 0.91188000E+02</pdfrwt>
<pdfrwt beam="1">  1       -1 0.41869036E-03 0.91188000E+02</pdfrwt>
<totfact> 0.14172674E+05</totfact>
</mgrwt>
</event>
<event>
 3      1 +4.2044000e+04 9.11880000e+01 7.54677100e-03 1.30000000e-01
        1 -1    0    0  501    0 +0.0000000000e+00 +0.0000000000e+00 +1.6478697260e+02 1.6478697260e+02 0.0000000000e+00 0.0000e+00 -1.0000e+00
       -1 -1    0    0    0  501 -0.0000000000e+00 -0.0000000000e+00 -1.2615152783e+01 1.2615152783e+01 0.0000000000e+00 0.0000e+00 1.0000e+00
       23  1    1    2    0    0 +0.0000000000e+00 +0.0000000000e+00 +1.5217181982e+02 1.7740212538e+02 9.1188000000e+01 0.0000e+00 -1.0000e+00
<mgrwt>
<rscale>  0 0.91188000E+02</rscale>
<asrwt>0</asrwt>
<pdfrwt beam="1">  1        1 0.25351840E-01 0.91188000E+02</pdfrwt>
<pdfrwt beam="2">  1       -1 0.19407929E-02 0.91188000E+02</pdfrwt>
<totfact> 0.11406869E+05</totfact>
</mgrwt>
</event>
<event>
 3      1 +4.2044000e+04 9.11880000e+01 7.54677100e-03 1.30000000e-01
        1 -1    0    0  501    0 +0.0000000000e+00 +0.0000000000e+00 +1.4794650416e+02 1.4794650416e+02 0.0000000000e+00 0.0000e+00 -1.0000e+00
       -1 -1    0    0    0  501 -0.0000000000e+00 -0.0000000000e+00 -1.4051111568e+01 1.4051111568e+01 0.0000000000e+00 0.0000e+00 1.0000e+00
       23  1    1    2    0    0 +0.0000000000e+00 +0.0000000000e+00 +1.3389539259e+02 1.6199761573e+02 9.1188000000e+01 0.0000e+00 -1.0000e+00
<mgrwt>
<rscale>  0 0.91188000E+02</rscale>
<asrwt>0</asrwt>
<pdfrwt beam="1">  1        1 0.22761000E-01 0.91188000E+02</pdfrwt>
<pdfrwt beam="2">  1       -1 0.21617096E-02 0.91188000E+02</pdfrwt>
<totfact> 0.11181234E+05</totfact>
</mgrwt>
</event>
<event>
 3      1 +4.2044000e+04 9.11880000e+01 7.54677100e-03 1.30000000e-01
        2 -1    0    0  501    0 +0.0000000000e+00 +0.0000000000e+00 +1.9241869718e+01 1.9241869718e+01 0.0000000000e+00 0.0000e+00 -1.0000e+00
       -2 -1    0    0    0  501 -0.0000000000e+00 -0.0000000000e+00 -1.0803590641e+02 1.0803590641e+02 0.0000000000e+00 0.0000e+00 1.0000e+00
       23  1    1    2    0    0 +0.0000000000e+00 +0.0000000000e+00 -8.8794036690e+01 1.2727777613e+02 9.1188000000e+01 0.0000e+00 -1.0000e+00
<mgrwt>
<rscale>  0 0.91188000E+02</rscale>
<asrwt>0</asrwt>
<pdfrwt beam="1">  1        2 0.29602877E-02 0.91188000E+02</pdfrwt>
<pdfrwt beam="2">  1       -2 0.16620908E-01 0.91188000E+02</pdfrwt>
<totfact> 0.77934368E+04</totfact>
</mgrwt>
</event>
<event>
 3      1 +4.2044000e+04 9.11880000e+01 7.54677100e-03 1.30000000e-01
       -2 -1    0    0    0  501 -0.0000000000e+00 +0.0000000000e+00 +8.8594248436e+02 8.8594248436e+02 0.0000000000e+00 0.0000e+00 -1.0000e+00
        2 -1    0    0  501    0 +0.0000000000e+00 -0.0000000000e+00 -2.3464422044e+00 2.3464422044e+00 0.0000000000e+00 0.0000e+00 1.0000e+00
       23  1    1    2    0    0 +0.0000000000e+00 -0.0000000000e+00 +8.8359604215e+02 8.8828892656e+02 9.1188000000e+01 0.0000e+00 -1.0000e+00
<mgrwt>
<rscale>  0 0.91188000E+02</rscale>
<asrwt>0</asrwt>
<pdfrwt beam="2">  1        2 0.36099181E-03 0.91188000E+02</pdfrwt>
<pdfrwt beam="1">  1       -2 0.13629858E+00 0.91188000E+02</pdfrwt>
<totfact> 0.21414052E+04</totfact>
</mgrwt>
</event>
<event>
 3      1 +4.2044000e+04 9.11880000e+01 7.54677100e-03 1.30000000e-01
       -2 -1    0    0    0  501 -0.0000000000e+00 +0.0000000000e+00 +2.8162483446e+00 2.8162483446e+00 0.0000000000e+00 0.0000e+00 1.0000e+00
        2 -1    0    0  501    0 +0.0000000000e+00 -0.0000000000e+00 -7.3814968767e+02 7.3814968767e+02 0.0000000000e+00 0.0000e+00 -1.0000e+00
       23  1    1    2    0    0 +0.0000000000e+00 -0.0000000000e+00 -7.3533343933e+02 7.4096593602e+02 9.1188000000e+01 0.0000e+00 1.0000e+00
<mgrwt>
<rscale>  0 0.91188000E+02</rscale>
<asrwt>0</asrwt>
<pdfrwt beam="2">  1        2 0.11356156E+00 0.91188000E+02</pdfrwt>
<pdfrwt beam="1">  1       -2 0.43326870E-03 0.91188000E+02</pdfrwt>
<totfact> 0.23988302E+05</totfact>
</mgrwt>
</event>
<event>
 3      1 +4.2044000e+04 9.11880000e+01 7.54677100e-03 1.30000000e-01
       -3 -1    0    0    0  501 -0.0000000000e+00 +0.0000000000e+00 +1.5772205412e+01 1.5772205412e+01 0.0000000000e+00 0.0000e+00 1.0000e+00
        3 -1    0    0  501    0 +0.0000000000e+00 -0.0000000000e+00 -1.3180229282e+02 1.3180229282e+02 0.0000000000e+00 0.0000e+00 -1.0000e+00
       23  1    1    2    0    0 +0.0000000000e+00 -0.0000000000e+00 -1.1603008740e+02 1.4757449823e+02 9.1188000000e+01 0.0000e+00 1.0000e+00
<mgrwt>
<rscale>  0 0.91188000E+02</rscale>
<asrwt>0</asrwt>
<pdfrwt beam="2">  1        3 0.20277276E-01 0.91188000E+02</pdfrwt>
<pdfrwt beam="1">  1       -3 0.24264932E-02 0.91188000E+02</pdfrwt>
<totfact> 0.31445593E+04</totfact>
</mgrwt>
</event>
<event>
 3      1 +4.2044000e+04 9.11880000e+01 7.54677100e-03 1.30000000e-01
        3 -1    0    0  501    0 +0.0000000000e+00 +0.0000000000e+00 +4.4314623368e+02 4.4314623368e+02 0.0000000000e+00 0.0000e+00 -1.0000e+00
       -3 -1    0    0    0  501 -0.0000000000e+00 -0.0000000000e+00 -4.6910312624e+00 4.6910312624e+00 0.0000000000e+00 0.0000e+00 1.0000e+00
       23  1    1    2    0    0 +0.0000000000e+00 +0.0000000000e+00 +4.3845520242e+02 4.4783726494e+02 9.1188000000e+01 0.0000e+00 -1.0000e+00
<mgrwt>
<rscale>  0 0.91188000E+02</rscale>
<asrwt>0</asrwt>
<pdfrwt beam="1">  1        3 0.68176311E-01 0.91188000E+02</pdfrwt>
<pdfrwt beam="2">  1       -3 0.72169747E-03 0.91188000E+02</pdfrwt>
<totfact> 0.19240888E+04</totfact>
</mgrwt>
</event>
<event>
 3      1 +4.2044000e+04 9.11880000e+01 7.54677100e-03 1.30000000e-01
       -1 -1    0    0    0  501 -0.0000000000e+00 +0.0000000000e+00 +3.4355990151e+01 3.4355990151e+01 0.0000000000e+00 0.0000e+00 1.0000e+00
        1 -1    0    0  501    0 +0.0000000000e+00 -0.0000000000e+00 -6.0508016997e+01 6.0508016997e+01 0.0000000000e+00 0.0000e+00 -1.0000e+00
       23  1    1    2    0    0 +0.0000000000e+00 -0.0000000000e+00 -2.6152026846e+01 9.4864007148e+01 9.1188000000e+01 0.0000e+00 1.0000e+00
<mgrwt>
<rscale>  0 0.91188000E+02</rscale>
<asrwt>0</asrwt>
<pdfrwt beam="2">  1        1 0.93089256E-02 0.91188000E+02</pdfrwt>
<pdfrwt beam="1">  1       -1 0.52855370E-02 0.91188000E+02</pdfrwt>
<totfact> 0.96461588E+04</totfact>
</mgrwt>
</event>
<event>
 3      1 +4.2044000e+04 9.11880000e+01 7.54677100e-03 1.30000000e-01
        4 -1    0    0  501    0 +0.0000000000e+00 +0.0000000000e+00 +6.1990551172e+01 6.1990551172e+01 0.0000000000e+00 0.0000e+00 -1.0000e+00
       -4 -1    0    0    0  501 -0.0000000000e+00 -0.0000000000e+00 -3.3534349941e+01 3.3534349941e+01 0.0000000000e+00 0.0000e+00 1.0000e+00
       23  1    1    2    0    0 +0.0000000000e+00 +0.0000000000e+00 +2.8456201231e+01 9.5524901112e+01 9.1188000000e+01 0.0000e+00 -1.0000e+00
<mgrwt>
<rscale>  0 0.91188000E+02</rscale>
<asrwt>0</asrwt>
<pdfrwt beam="1">  1        4 0.95370079E-02 0.91188000E+02</pdfrwt>
<pdfrwt beam="2">  1       -4 0.51591308E-02 0.91188000E+02</pdfrwt>
<totfact> 0.26729566E+04</totfact>
</mgrwt>
</event>
<event>
 3      1 +4.2044000e+04 9.11880000e+01 7.54677100e-03 1.30000000e-01
        2 -1    0    0  501    0 +0.0000000000e+00 +0.0000000000e+00 +4.1656373516e+02 4.1656373516e+02 0.0000000000e+00 0.0000e+00 -1.0000e+00
       -2 -1    0    0    0  501 -0.0000000000e+00 -0.0000000000e+00 -4.9903836089e+00 4.9903836089e+00 0.0000000000e+00 0.0000e+00 1.0000e+00
       23  1    1    2    0    0 +0.0000000000e+00 +0.0000000000e+00 +4.1157335155e+02 4.2155411877e+02 9.1188000000e+01 0.0000e+00 -1.0000e+00
<mgrwt>
<rscale>  0 0.91188000E+02</rscale>
<asrwt>0</asrwt>
<pdfrwt beam="1">  1        2 0.64086701E-01 0.91188000E+02</pdfrwt>
<pdfrwt beam="2">  1       -2 0.76775165E-03 0.91188000E+02</pdfrwt>
<totfact> 0.20245784E+05</totfact>
</mgrwt>
</event>
<event>
 3      1 +4.2044000e+04 9.11880000e+01 7.54677100e-03 1.30000000e-01
       -2 -1    0    0    0  501 -0.0000000000e+00 +0.0000000000e+00 +1.9799117504e+02 1.9799117504e+02 0.0000000000e+00 0.0000e+00 1.0000e+00
        2 -1    0    0  501    0 +0.0000000000e+00 -0.0000000000e+00 -1.0499522696e+01 1.0499522696e+01 0.0000000000e+00 0.0000e+00 -1.0000e+00
       23  1    1    2    0    0 +0.0000000000e+00 -0.0000000000e+00 +1.8749165234e+02 2.0849069773e+02 9.1188000000e+01 0.0000e+00 1.0000e+00
<mgrwt>
<rscale>  0 0.91188000E+02</rscale>
<asrwt>0</asrwt>
<pdfrwt beam="2">  1        2 0.16153113E-02 0.91188000E+02</pdfrwt>
<pdfrwt beam="1">  1       -2 0.30460178E-01 0.91188000E+02</pdfrwt>
<totfact> 0.62571790E+04</totfact>
</mgrwt>
</event>
<event>
 3      1 +4.2044000e+04 9.11880000e+01 7.54677100e-03 1.30000000e-01
       -1 -1    0    0    0  501 -0.0000000000e+00 +0.0000000000e+00 +3.2595263233e+01 3.2595263233e+01 0.0000000000e+00 0.0000e+00 1.0000e+00
        1 -1    0    0  501    0 +0.0000000000e+00 -0.0000000000e+00 -6.3776531613e+01 6.3776531613e+01 0.0000000000e+00 0.0000e+00 -1.0000e+00
       23  1    1    2    0    0 +0.0000000000e+00 -0.0000000000e+00 -3.1181268381e+01 9.6371794846e+01 9.1188000000e+01 0.0000e+00 1.0000e+00
<mgrwt>
<rscale>  0 0.91188000E+02</rscale>
<asrwt>0</asrwt>
<pdfrwt beam="2">  1        1 0.98117740E-02 0.91188000E+02</pdfrwt>
<pdfrwt beam="1">  1       -1 0.50146559E-02 0.91188000E+02</pdfrwt>
<totfact> 0.97235588E+04</totfact>
</mgrwt>
</event>
<event>
 3      1 +4.2044000e+04 9.11880000e+01 7.54677100e-03 1.30000000e-01
       -1 -1    0    0    0  501 -0.0000000000e+00 +0.0000000000e+00 +3.3194351175e+00 3.3194351175e+00 0.0000000000e+00 0.0000e+00 1.0000e+00
        1 -1    0    0  501    0 +0.0000000000e+00 -0.0000000000e+00 -6.2625499894e+02 6.2625499894e+02 0.0000000000e+00 0.0000e+00 -1.0000e+00
       23  1    1    2    0    0 +0.0000000000e+00 -0.0000000000e+00 -6.2293556382e+02 6.2957443406e+02 9.1188000000e+01 0.0000e+00 1.0000e+00
<mgrwt>
<rscale>  0 0.91188000E+02</rscale>
<asrwt>0</asrwt>
<pdfrwt beam="2">  1        1 0.96346818E-01 0.91188000E+02</pdfrwt>
<pdfrwt beam="1">  1       -1 0.51068288E-03 0.91188000E+02</pdfrwt>
<totfact> 0.14185284E+05</totfact>
</mgrwt>
</event>
<event>
 3      1 +4.2044000e+04 9.11880000e+01 7.54677100e-03 1.30000000e-01
       -3 -1    0    0    0  501 -0.0000000000e+00 +0.0000000000e+00 +3.6565614003e+01 3.6565614003e+01 0.0000000000e+00 0.0000e+00 -1.0000e+00
        3 -1    0    0  501    0 +0.0000000000e+00 -0.0000000000e+00 -5.6851577436e+01 5.6851577436e+01 0.0000000000e+00 0.0000e+00 1.0000e+00
       23  1    1    2    0    0 +0.0000000000e+00 -0.0000000000e+00 -2.0285963434e+01 9.3417191439e+01 9.1188000000e+01 0.0000e+00 -1.0000e+00
<mgrwt>
<rscale>  0 0.91188000E+02</rscale>
<asrwt>0</asrwt>
<pdfrwt beam="2">  1        3 0.87463966E-02 0.91188000E+02</pdfrwt>
<pdfrwt beam="1">  1       -3 0.56254790E-02 0.91188000E+02</pdfrwt>
<totfact> 0.35155472E+04</totfact>
</mgrwt>
</event>
<event>
 3      1 +4.2044000e+04 9.11880000e+01 7.54677100e-03 1.30000000e-01
        2 -1    0    0  501    0 +0.0000000000e+00 +0.0000000000e+00 +3.3827028273e+02 3.3827028273e+02 0.0000000000e+00 0.0000e+00 -1.0000e+00
       -2 -1    0    0    0  501 -0.0000000000e+00 -0.0000000000e+00 -6.1454196308e+00 6.1454196308e+00 0.0000000000e+00 0.0000e+00 1.0000e+00
       23  1    1    2    0    0 +0.0000000000e+00 +0.0000000000e+00 +3.3212486310e+02 3.4441570236e+02 9.1188000000e+01 0.0000e+00 -1.0000e+00
<mgrwt>
<rscale>  0 0.91188000E+02</rscale>
<asrwt>0</asrwt>
<pdfrwt beam="1">  1        2 0.52041567E-01 0.91188000E+02</pdfrwt>
<pdfrwt beam="2">  1       -2 0.94544944E-03 0.91188000E+02</pdfrwt>
<totfact> 0.18777118E+05</totfact>
</mgrwt>
</event>
<event>
 3      1 +4.2044000e+04 9.11880000e+01 7.54677100e-03 1.30000000e-01
       -1 -1    0    0    0  501 -0.0000000000e+00 +0.0000000000e+00 +3.8656681075e+01 3.8656681075e+01 0.0000000000e+00 0.0000e+00 1.0000e+00
        1 -1    0    0  501    0 +0.0000000000e+00 -0.0000000000e+00 -5.3776288554e+01 5.3776288554e+01 0.0000000000e+00 0.0000e+00 -1.0000e+00
       23  1    1    2    0    0 +0.0000000000e+00 -0.0000000000e+00 -1.5119607479e+01 9.2432969628e+01 9.1188000000e+01 0.0000e+00 1.0000e+00
<mgrwt>
<rscale>  0 0.91188000E+02</rscale>
<asrwt>0</asrwt>
<pdfrwt beam="2">  1        1 0.82732752E-02 0.91188000E+02</pdfrwt>
<pdfrwt beam="1">  1       -1 0.59471817E-02 0.91188000E+02</pdfrwt>
<totfact> 0.94761854E+04</totfact>
</mgrwt>
</event>
<event>
 3      1 +4.2044000e+04 9.11880000e+01 7.54677100e-03 1.30000000e-01
        3 -1    0    0  501    0 +0.0000000000e+00 +0.0000000000e+00 +2.6096683183e+01 2.6096683183e+01 0.0000000000e+00 0.0000e+00 -1.0000e+00
       -3 -1    0    0    0  501 -0.0000000000e+00 -0.0000000000e+00 -7.9658124421e+01 7.9658124421e+01 0.0000000000e+00 0.0000e+00 1.0000e+00
       23  1    1    2    0    0 +0.0000000000e+00 +0.0000000000e+00 -5.3561441238e+01 1.0575480760e+02 9.1188000000e+01 0.0000e+00 -1.0000e+00
<mgrwt>
<rscale>  0 0.91188000E+02</rscale>
<asrwt>0</asrwt>
<pdfrwt beam="1">  1        3 0.40148744E-02 0.91188000E+02</pdfrwt>
<pdfrwt beam="2">  1       -3 0.12255096E-01 0.91188000E+02</pdfrwt>
<totfact> 0.34239742E+04</totfact>
</mgrwt>
</event>
<event>
 3      1 +4.2044000e+04 9.11880000e+01 7.54677100e-03 1.30000000e-01
        2 -1    0    0  501    0 +0.0000000000e+00 +0.0000000000e+00 +3.0705855473e+01 3.0705855473e+01 0.0000000000e+00 0.0000e+00 -1.0000e+00
       -2 -1    0    0    0  501 -0.0000000000e+00 -0.0000000000e+00 -6.7700860438e+01 6.7700860438e+01 0.0000000000e+00 0.0000e+00 1.0000e+00
       23  1    1    2    0    0 +0.0000000000e+00 +0.0000000000e+00 -3.6995004966e+01 9.8406715911e+01 9.1188000000e+01 0.0000e+00 -1.0000e+00
<mgrwt>
<rscale>  0 0.91188000E+02</rscale>
<asrwt>0</asrwt>
<pdfrwt beam="1">  1        2 0.47239778E-02 0.91188000E+02</pdfrwt>
<pdfrwt beam="2">  1       -2 0.10415517E-01 0.91188000E+02</pdfrwt>
<totfact> 0.88983613E+04</totfact>
</mgrwt>
</event>
<event>
 3      1 +4.2044000e+04 9.11880000e+01 7.54677100e-03 1.30000000e-01
        2 -1    0    0  501    0 +0.0000000000e+00 +0.0000000000e+00 +3.8799855486e+00 3.8799855486e+00 0.0000000000e+00 0.0000e+00 -1.0000e+00
       -2 -1    0    0    0  501 -0.0000000000e+00 -0.0000000000e+00 -5.3577849968e+02 5.3577849968e+02 0.0000000000e+00 0.0000e+00 1.0000e+00
       23  1    1    2    0    0 +0.0000000000e+00 +0.0000000000e+00 -5.3189851413e+02 5.3965848522e+02 9.1188000000e+01 0.0000e+00 -1.0000e+00
<mgrwt>
<rscale>  0 0.91188000E+02</rscale>
<asrwt>0</asrwt>
<pdfrwt beam="1">  1        2 0.59692074E-03 0.91188000E+02</pdfrwt>
<pdfrwt beam="2">  1       -2 0.82427477E-01 0.91188000E+02</pdfrwt>
<totfact> 0.34354721E+04</totfact>
</mgrwt>
</event>
<event>
 3      1 +4.2044000e+04 9.11880000e+01 7.54677100e-03 1.30000000e-01
       -2 -1    0    0    0  501 -0.0000000000e+00 +0.0000000000e+00 +2.2293558360e+00 2.2293558360e+00 0.0000000000e+00 0.0000e+00 1.0000e+00
        2 -1    0    0  501    0 +0.0000000000e+00 -0.0000000000e+00 -9.3247242206e+02 9.3247242206e+02 0.0000000000e+00 0.0000e+00 -1.0000e+00
       23  1    1    2    0    0 +0.0000000000e+00 -0.0000000000e+00 -9.3024306622e+02 9.3470177789e+02 9.1188000000e+01 0.0000e+00 1.0000e+00
<mgrwt>
<rscale>  0 0.91188000E+02</rscale>
<asrwt>0</asrwt>
<pdfrwt beam="2">  1        2 0.14345701E+00 0.91188000E+02</pdfrwt>
<pdfrwt beam="1">  1       -2 0.34297850E-03 0.91188000E+02</pdfrwt>
<totfact> 0.24875606E+05</totfact>
</mgrwt>
</event>
<event>
 3      1 +4.2044000e+04 9.11880000e+01 7.54677100e-03 1.30000000e-01
       -2 -1    0    0    0  501 -0.0000000000e+00 +0.0000000000e+00 +1.3365924725e+03 1.3365924725e+03 0.0000000000e+00 0.0000e+00 1.0000e+00
        2 -1    0    0  501    0 +0.0000000000e+00 -0.0000000000e+00 -1.5553079033e+00 1.5553079033e+00 0.0000000000e+00 0.0000e+00 -1.0000e+00
       23  1    1    2    0    0 +0.0000000000e+00 -0.0000000000e+00 +1.3350371646e+03 1.3381477804e+03 9.1188000000e+01 0.0000e+00 1.0000e+00
<mgrwt>
<rscale>  0 0.91188000E+02</rscale>
<asrwt>0</asrwt>
<pdfrwt beam="2">  1        2 0.23927921E-03 0.91188000E+02</pdfrwt>
<pdfrwt beam="1">  1       -2 0.20562869E+00 0.91188000E+02</pdfrwt>
<totfact> 0.12744042E+04</totfact>
</mgrwt>
</event>
<event>
 3      1 +4.2044000e+04 9.11880000e+01 7.54677100e-03 1.30000000e-01
        1 -1    0    0  501    0 +0.0000000000e+00 +0.0000000000e+00 +1.6066675644e+03 1.6066675644e+03 0.0000000000e+00 0.0000e+00 -1.0000e+00
       -1 -1    0    0    0  501 -0.0000000000e+00 -0.0000000000e+00 -1.2938661874e+00 1.2938661874e+00 0.0000000000e+00 0.0000e+00 1.0000e+00
       23  1    1    2    0    0 +0.0000000000e+00 +0.0000000000e+00 +1.6053736982e+03 1.6079614306e+03 9.1188000000e+01 0.0000e+00 -1.0000e+00
<mgrwt>
<rscale>  0 0.91188000E+02</rscale>
<asrwt>0</asrwt>
<pdfrwt beam="1">  1        1 0.24717803E+00 0.91188000E+02</pdfrwt>
<pdfrwt beam="2">  1       -1 0.19905762E-03 0.91188000E+02</pdfrwt>
<totfact> 0.10395723E+05</totfact>
</mgrwt>
</event>
<event>
 3      1 +4.2044000e+04 9.11880000e+01 7.54677100e-03 1.30000000e-01
       -1 -1    0    0    0  501 -0.0000000000e+00 +0.0000000000e+00 +3.0697562074e+00 3.0697562074e+00 0.0000000000e+00 0.0000e+00 1.0000e+00
        1 -1    0    0  501    0 +0.0000000000e+00 -0.0000000000e+00 -6.7719150824e+02 6.7719150824e+02 0.0000000000e+00 0.0000e+00 -1.0000e+00
       23  1    1    2    0    0 +0.0000000000e+00 -0.0000000000e+00 -6.7412175203e+02 6.8026126445e+02 9.1188000000e+01 0.0000e+00 1.0000e+00
<mgrwt>
<rscale>  0 0.91188000E+02</rscale>
<asrwt>0</asrwt>
<pdfrwt beam="2">  1        1 0.10418330E+00 0.91188000E+02</pdfrwt>
<pdfrwt beam="1">  1       -1 0.47227024E-03 0.91188000E+02</pdfrwt>
<totfact> 0.14213341E+05</totfact>
</mgrwt>
</event>
<event>
 3      1 +4.2044000e+04 9.11880000e+01 7.54677100e-03 1.30000000e-01
        2 -1    0    0  501    0 +0.0000000000e+00 +0.0000000000e+00 +7.7076810286e+02 7.7076810286e+02 0.0000000000e+00 0.0000e+00 -1.0000e+00
       -2 -1    0    0    0  501 -0.0000000000e+00 -0.0000000000e+00 -2.6970665084e+00 2.6970665084e+00 0.0000000000e+00 0.0000e+00 1.0000e+00
       23  1    1    2    0    0 +0.0000000000e+00 +0.0000000000e+00 +7.6807103635e+02 7.7346516937e+02 9.1188000000e+01 0.0000e+00 -1.0000e+00
<mgrwt>
<rscale>  0 0.91188000E+02</rscale>
<asrwt>0</asrwt>
<pdfrwt beam="1">  1        2 0.11857953E+00 0.91188000E+02</pdfrwt>
<pdfrwt beam="2">  1       -2 0.41493392E-03 0.91188000E+02</pdfrwt>
<totfact> 0.24199393E+05</totfact>
</mgrwt>
</event>
<event>
 3      1 +4.2044000e+04 9.11880000e+01 7.54677100e-03 1.30000000e-01
       -2 -1    0    0    0  501 -0.0000000000e+00 +0.0000000000e+00 +2.2618182270e+00 2.2618182270e+00 0.0000000000e+00 0.0000e+00 -1.0000e+00
        2 -1    0    0  501    0 +0.0000000000e+00 -0.0000000000e+00 -9.1908925801e+02 9.1908925801e+02 0.0000000000e+00 0.0000e+00 1.0000e+00
       23  1    1    2    0    0 +0.0000000000e+00 -0.0000000000e+00 -9.1682743979e+02 9.2135107624e+02 9.1188000000e+01 0.0000e+00 -1.0000e+00
<mgrwt>
<rscale>  0 0.91188000E+02</rscale>
<asrwt>0</asrwt>
<pdfrwt beam="2">  1        2 0.14139848E+00 0.91188000E+02</pdfrwt>
<pdfrwt beam="1">  1       -2 0.34797171E-03 0.91188000E+02</pdfrwt>
<totfact> 0.24841414E+05</totfact>
</mgrwt>
</event>
<event>
 3      1 +4.2044000e+04 9.11880000e+01 7.54677100e-03 1.30000000e-01
        1 -1    0    0  501    0 +0.0000000000e+00 +0.0000000000e+00 +2.5525889697e+02 2.5525889697e+02 0.0000000000e+00 0.0000e+00 -1.0000e+00
       -1 -1    0    0    0  501 -0.0000000000e+00 -0.0000000000e+00 -8.1439388036e+00 8.1439388036e+00 0.0000000000e+00 0.0000e+00 1.0000e+00
       23  1    1    2    0    0 +0.0000000000e+00 +0.0000000000e+00 +2.4711495817e+02 2.6340283577e+02 9.1188000000e+01 0.0000e+00 -1.0000e+00
<mgrwt>
<rscale>  0 0.91188000E+02</rscale>
<asrwt>0</asrwt>
<pdfrwt beam="1">  1        1 0.39270593E-01 0.91188000E+02</pdfrwt>
<pdfrwt beam="2">  1       -1 0.12529139E-02 0.91188000E+02</pdfrwt>
<totfact> 0.12413135E+05</totfact>
</mgrwt>
</event>
<event>
 3      1 +4.2044000e+04 9.11880000e+01 7.54677100e-03 1.30000000e-01
       -1 -1    0    0    0  501 -0.0000000000e+00 +0.0000000000e+00 +9.2559869516e+01 9.2559869516e+01 0.0000000000e+00 0.0000e+00 1.0000e+00
        1 -1    0    0  501    0 +0.0000000000e+00 -0.0000000000e+00 -2.2459115888e+01 2.2459115888e+01 0.0000000000e+00 0.0000e+00 -1.0000e+00
       23  1    1    2    0    0 +0.0000000000e+00 -0.0000000000e+00 +7.0100753628e+01 1.1501898540e+02 9.1188000000e+01 0.0000e+00 1.0000e+00
<mgrwt>
<rscale>  0 0.91188000E+02</rscale>
<asrwt>0</asrwt>
<pdfrwt beam="2">  1        1 0.34552487E-02 0.91188000E+02</pdfrwt>
<pdfrwt beam="1">  1       -1 0.14239980E-01 0.91188000E+02</pdfrwt>
<totfact> 0.82502058E+04</totfact>
</mgrwt>
</event>
<event>
 3      1 +4.2044000e+04 9.11880000e+01 7.54677100e-03 1.30000000e-01
       -1 -1    0    0    0  501 -0.0000000000e+00 +0.0000000000e+00 +5.1484311115e+02 5.1484311115e+02 0.0000000000e+00 0.0000e+00 1.0000e+00
        1 -1    0    0  501    0 +0.0000000000e+00 -0.0000000000e+00 -4.0377598359e+00 4.0377598359e+00 0.0000000000e+00 0.0000e+00 -1.0000e+00
       23  1    1    2    0    0 +0.0000000000e+00 -0.0000000000e+00 +5.1080535132e+02 5.1888087099e+02 9.1188000000e+01 0.0000e+00 1.0000e+00
<mgrwt>
<rscale>  0 0.91188000E+02</rscale>
<asrwt>0</asrwt>
<pdfrwt beam="2">  1        1 0.62119423E-03 0.91188000E+02</pdfrwt>
<pdfrwt beam="1">  1       -1 0.79206580E-01 0.91188000E+02</pdfrwt>
<totfact> 0.46175086E+04</totfact>
</mgrwt>
</event>
<event>
 3      1 +4.2044000e+04 9.11880000e+01 7.54677100e-03 1.30000000e-01
        1 -1    0    0  501    0 +0.0000000000e+00 +0.0000000000e+00 +2.3012706285e+02 2.3012706285e+02 0.0000000000e+00 0.0000e+00 1.0000e+00
       -1 -1    0    0    0  501 -0.0000000000e+00 -0.0000000000e+00 -9.0333262428e+00 9.0333262428e+00 0.0000000000e+00 0.0000e+00 -1.0000e+00
       23  1    1    2    0    0 +0.0000000000e+00 +0.0000000000e+00 +2.2109373661e+02 2.3916038909e+02 9.1188000000e+01 0.0000e+00 1.0000e+00
<mgrwt>
<rscale>  0 0.91188000E+02</rscale>
<asrwt>0</asrwt>
<pdfrwt beam="1">  1        1 0.35404159E-01 0.91188000E+02</pdfrwt>
<pdfrwt beam="2">  1       -1 0.13897427E-02 0.91188000E+02</pdfrwt>
<totfact> 0.12164820E+05</totfact>
</mgrwt>
</event>
<event>
 3      1 +4.2044000e+04 9.11880000e+01 7.54677100e-03 1.30000000e-01
       -2 -1    0    0    0  501 -0.0000000000e+00 +0.0000000000e+00 +3.5374609606e+00 3.5374609606e+00 0.0000000000e+00 0.0000e+00 -1.0000e+00
        2 -1    0    0  501    0 +0.0000000000e+00 -0.0000000000e+00 -5.8765675697e+02 5.8765675697e+02 0.0000000000e+00 0.0000e+00 1.0000e+00
       23  1    1    2    0    0 +0.0000000000e+00 -0.0000000000e+00 -5.8411929601e+02 5.9119421793e+02 9.1188000000e+01 0.0000e+00 -1.0000e+00
<mgrwt>
<rscale>  0 0.91188000E+02</rscale>
<asrwt>0</asrwt>
<pdfrwt beam="2">  1        2 0.90408704E-01 0.91188000E+02</pdfrwt>
<pdfrwt beam="1">  1       -2 0.54422493E-03 0.91188000E+02</pdfrwt>
<totfact> 0.22642458E+05</totfact>
</mgrwt>
</event>
<event>
 3      1 +4.2044000e+04 9.11880000e+01 7.54677100e-03 1.30000000e-01
       -4 -1    0    0    0  501 -0.0000000000e+00 +0.0000000000e+00 +2.0267783289e+01 2.0267783289e+01 0.0000000000e+00 0.0000e+00 1.0000e+00
        4 -1    0    0  501    0 +0.0000000000e+00 -0.0000000000e+00 -1.0256735067e+02 1.0256735067e+02 0.0000000000e+00 0.0000e+00 -1.0000e+00
       23  1    1    2    0    0 +0.0000000000e+00 -0.0000000000e+00 -8.2299567384e+01 1.2283513396e+02 9.1188000000e+01 0.0000e+00 1.0000e+00
<mgrwt>
<rscale>  0 0.91188000E+02</rscale>
<asrwt>0</asrwt>
<pdfrwt beam="2">  1        4 0.15779592E-01 0.91188000E+02</pdfrwt>
<pdfrwt beam="1">  1       -4 0.31181205E-02 0.91188000E+02</pdfrwt>
<totfact> 0.25104646E+04</totfact>
</mgrwt>
</event>
<event>
 3      1 +4.2044000e+04 9.11880000e+01 7.54677100e-03 1.30000000e-01
        2 -1    0    0  501    0 +0.0000000000e+00 +0.0000000000e+00 +9.3897363490e+02 9.3897363490e+02 0.0000000000e+00 0.0000e+00 1.0000e+00
       -2 -1    0    0    0  501 -0.0000000000e+00 -0.0000000000e+00 -2.2139203474e+00 2.2139203474e+00 0.0000000000e+00 0.0000e+00 -1.0000e+00
       23  1    1    2    0    0 +0.0000000000e+00 +0.0000000000e+00 +9.3675971455e+02 9.4118755525e+02 9.1188000000e+01 0.0000e+00 1.0000e+00
<mgrwt>
<rscale>  0 0.91188000E+02</rscale>
<asrwt>0</asrwt>
<pdfrwt beam="1">  1        2 0.14445716E+00 0.91188000E+02</pdfrwt>
<pdfrwt beam="2">  1       -2 0.34060388E-03 0.91188000E+02</pdfrwt>
<totfact> 0.24890890E+05</totfact>
</mgrwt>
</event>
<event>
 3      1 +4.2044000e+04 9.11880000e+01 7.54677100e-03 1.30000000e-01
       -1 -1    0    0    0  501 -0.0000000000e+00 +0.0000000000e+00 +1.0713060983e+01 1.0713060983e+01 0.0000000000e+00 0.0000e+00 1.0000e+00
        1 -1    0    0  501    0 +0.0000000000e+00 -0.0000000000e+00 -1.9404471227e+02 1.9404471227e+02 0.0000000000e+00 0.0000e+00 -1.0000e+00
       23  1    1    2    0    0 +0.0000000000e+00 -0.0000000000e+00 -1.8333165128e+02 2.0475777325e+02 9.1188000000e+01 0.0000e+00 1.0000e+00
<mgrwt>
<rscale>  0 0.91188000E+02</rscale>
<asrwt>0</asrwt>
<pdfrwt beam="2">  1        1 0.29853031E-01 0.91188000E+02</pdfrwt>
<pdfrwt beam="1">  1       -1 0.16481633E-02 0.91188000E+02</pdfrwt>
<totfact> 0.11767631E+05</totfact>
</mgrwt>
</event>
<event>
 3      1 +4.2044000e+04 9.11880000e+01 7.54677100e-03 1.30000000e-01
       -1 -1    0    0    0  501 -0.0000000000e+00 +0.0000000000e+00 +5.2809983030e+00 5.2809983030e+00 0.0000000000e+00 0.0000e+00 1.0000e+00
        1 -1    0    0  501    0 +0.0000000000e+00 -0.0000000000e+00 -3.9364012573e+02 3.9364012573e+02 0.0000000000e+00 0.0000e+00 -1.0000e+00
       23  1    1    2    0    0 +0.0000000000e+00 -0.0000000000e+00 -3.8835912743e+02 3.9892112404e+02 9.1188000000e+01 0.0000e+00 1.0000e+00
<mgrwt>
<rscale>  0 0.91188000E+02</rscale>
<asrwt>0</asrwt>
<pdfrwt beam="2">  1        1 0.60560016E-01 0.91188000E+02</pdfrwt>
<pdfrwt beam="1">  1       -1 0.81246133E-03 0.91188000E+02</pdfrwt>
<totfact> 0.13449168E+05</totfact>
</mgrwt>
</event>
<event>
 3      1 +4.2044000e+04 9.11880000e+01 7.54677100e-03 1.30000000e-01
       -1 -1    0    0    0  501 -0.0000000000e+00 +0.0000000000e+00 +1.3502716045e+01 1.3502716045e+01 0.0000000000e+00 0.0000e+00 -1.0000e+00
        1 -1    0    0  501    0 +0.0000000000e+00 -0.0000000000e+00 -1.5395516199e+02 1.5395516199e+02 0.0000000000e+00 0.0000e+00 1.0000e+00
       23  1    1    2    0    0 +0.0000000000e+00 -0.0000000000e+00 -1.4045244595e+02 1.6745787804e+02 9.1188000000e+01 0.0000e+00 -1.0000e+00
<mgrwt>
<rscale>  0 0.91188000E+02</rscale>
<asrwt>0</asrwt>
<pdfrwt beam="2">  1        1 0.23685410E-01 0.91188000E+02</pdfrwt>
<pdfrwt beam="1">  1       -1 0.20773409E-02 0.91188000E+02</pdfrwt>
<totfact> 0.11263481E+05</totfact>
</mgrwt>
</event>
<event>
 3      1 +4.2044000e+04 9.11880000e+01 7.54677100e-03 1.30000000e-01
       -1 -1    0    0    0  501 -0.0000000000e+00 +0.0000000000e+00 +1.2677749282e+01 1.2677749282e+01 0.0000000000e+00 0.0000e+00 1.0000e+00
        1 -1    0    0  501    0 +0.0000000000e+00 -0.0000000000e+00 -1.6397333546e+02 1.6397333546e+02 0.0000000000e+00 0.0000e+00 -1.0000e+00
       23  1    1    2    0    0 +0.0000000000e+00 -0.0000000000e+00 -1.5129558618e+02 1.7665108475e+02 9.1188000000e+01 0.0000e+00 1.0000e+00
<mgrwt>
<rscale>  0 0.91188000E+02</rscale>
<asrwt>0</asrwt>
<pdfrwt beam="2">  1        1 0.25226668E-01 0.91188000E+02</pdfrwt>
<pdfrwt beam="1">  1       -1 0.19504229E-02 0.91188000E+02</pdfrwt>
<totfact> 0.11396309E+05</totfact>
</mgrwt>
</event>
<event>
 3      1 +4.2044000e+04 9.11880000e+01 7.54677100e-03 1.30000000e-01
        1 -1    0    0  501    0 +0.0000000000e+00 +0.0000000000e+00 +8.2944958022e+01 8.2944958022e+01 0.0000000000e+00 0.0000e+00 -1.0000e+00
       -1 -1    0    0    0  501 -0.0000000000e+00 -0.0000000000e+00 -2.5062558178e+01 2.5062558178e+01 0.0000000000e+00 0.0000e+00 1.0000e+00
       23  1    1    2    0    0 +0.0000000000e+00 +0.0000000000e+00 +5.7882399843e+01 1.0800751620e+02 9.1188000000e+01 0.0000e+00 -1.0000e+00
<mgrwt>
<rscale>  0 0.91188000E+02</rscale>
<asrwt>0</asrwt>
<pdfrwt beam="1">  1        1 0.12760763E-01 0.91188000E+02</pdfrwt>
<pdfrwt beam="2">  1       -1 0.38557782E-02 0.91188000E+02</pdfrwt>
<totfact> 0.10128878E+05</totfact>
</mgrwt>
</event>
<event>
 3      1 +4.2044000e+04 9.11880000e+01 7.54677100e-03 1.30000000e-01
        2 -1    0    0  501    0 +0.0000000000e+00 +0.0000000000e+00 +8.6237441694e+00 8.6237441694e+00 0.0000000000e+00 0.0000e+00 -1.0000e+00
       -2 -1    0    0    0  501 -0.0000000000e+00 -0.0000000000e+00 -2.4105687682e+02 2.4105687682e+02 0.0000000000e+00 0.0000e+00 1.0000e+00
       23  1    1    2    0    0 +0.0000000000e+00 +0.0000000000e+00 -2.3243313265e+02 2.4968062099e+02 9.1188000000e+01 0.0000e+00 -1.0000e+00
<mgrwt>
<rscale>  0 0.91188000E+02</rscale>
<asrwt>0</asrwt>
<pdfrwt beam="1">  1        2 0.13267298E-02 0.91188000E+02</pdfrwt>
<pdfrwt beam="2">  1       -2 0.37085676E-01 0.91188000E+02</pdfrwt>
<totfact> 0.57177523E+04</totfact>
</mgrwt>
</event>
<event>
 3      1 +4.2044000e+04 9.11880000e+01 7.54677100e-03 1.30000000e-01
        1 -1    0    0  501    0 +0.0000000000e+00 +0.0000000000e+00 +3.0471835617e+01 3.0471835617e+01 0.0000000000e+00 0.0000e+00 -1.0000e+00
       -1 -1    0    0    0  501 -0.0000000000e+00 -0.0000000000e+00 -6.8220794511e+01 6.8220794511e+01 0.0000000000e+00 0.0000e+00 1.0000e+00
       23  1    1    2    0    0 +0.0000000000e+00 +0.0000000000e+00 -3.7748958893e+01 9.8692630128e+01 9.1188000000e+01 0.0000e+00 -1.0000e+00
<mgrwt>
<rscale>  0 0.91188000E+02</rscale>
<asrwt>0</asrwt>
<pdfrwt beam="1">  1        1 0.46879747E-02 0.91188000E+02</pdfrwt>
<pdfrwt beam="2">  1       -1 0.10495507E-01 0.91188000E+02</pdfrwt>
<totfact> 0.86872003E+04</totfact>
</mgrwt>
</event>
<event>
 3      1 +4.2044000e+04 9.11880000e+01 7.54677100e-03 1.30000000e-01
        3 -1    0    0  501    0 +0.0000000000e+00 +0.0000000000e+00 +2.9108052547e+01 2.9108052547e+01 0.0000000000e+00 0.0000e+00 -1.0000e+00
       -3 -1    0    0    0  501 -0.0000000000e+00 -0.0000000000e+00 -7.1417104687e+01 7.1417104687e+01 0.0000000000e+00 0.0000e+00 1.0000e+00
       23  1    1    2    0    0 +0.0000000000e+00 +0.0000000000e+00 -4.2309052140e+01 1.0052515723e+02 9.1188000000e+01 0.0000e+00 -1.0000e+00
<mgrwt>
<rscale>  0 0.91188000E+02</rscale>
<asrwt>0</asrwt>
<pdfrwt beam="1">  1        3 0.44781619E-02 0.91188000E+02</pdfrwt>
<pdfrwt beam="2">  1       -3 0.10987247E-01 0.91188000E+02</pdfrwt>
<totfact> 0.34621962E+04</totfact>
</mgrwt>
</event>
<event>
 3      1 +4.2044000e+04 9.11880000e+01 7.54677100e-03 1.30000000e-01
       -2 -1    0    0    0  501 -0.0000000000e+00 +0.0000000000e+00 +1.5276756149e+01 1.5276756149e+01 0.0000000000e+00 0.0000e+00 1.0000e+00
        2 -1    0    0  501    0 +0.0000000000e+00 -0.0000000000e+00 -1.3607684876e+02 1.3607684876e+02 0.0000000000e+00 0.0000e+00 -1.0000e+00
       23  1    1    2    0    0 +0.0000000000e+00 -0.0000000000e+00 -1.2080009261e+02 1.5135360491e+02 9.1188000000e+01 0.0000e+00 1.0000e+00
<mgrwt>
<rscale>  0 0.91188000E+02</rscale>
<asrwt>0</asrwt>
<pdfrwt beam="2">  1        2 0.20934900E-01 0.91188000E+02</pdfrwt>
<pdfrwt beam="1">  1       -2 0.23502701E-02 0.91188000E+02</pdfrwt>
<totfact> 0.13526059E+05</totfact>
</mgrwt>
</event>
<event>
 3      1 +4.2044000e+04 9.11880000e+01 7.54677100e-03 1.30000000e-01
       -3 -1    0    0    0  501 -0.0000000000e+00 +0.0000000000e+00 +4.9357640076e+00 4.9357640076e+00 0.0000000000e+00 0.0000e+00 1.0000e+00
        3 -1    0    0  501    0 +0.0000000000e+00 -0.0000000000e+00 -4.2117346632e+02 4.2117346632e+02 0.0000000000e+00 0.0000e+00 -1.0000e+00
       23  1    1    2    0    0 +0.0000000000e+00 -0.0000000000e+00 -4.1623770231e+02 4.2610923033e+02 9.1188000000e+01 0.0000e+00 1.0000e+00
<mgrwt>
<rscale>  0 0.91188000E+02</rscale>
<asrwt>0</asrwt>
<pdfrwt beam="2">  1        3 0.64795941E-01 0.91188000E+02</pdfrwt>
<pdfrwt beam="1">  1       -3 0.75934803E-03 0.91188000E+02</pdfrwt>
<totfact> 0.19843461E+04</totfact>
</mgrwt>
</event>
<event>
 3      1 +4.2044000e+04 9.11880000e+01 7.54677100e-03 1.30000000e-01
        3 -1    0    0  501    0 +0.0000000000e+00 +0.0000000000e+00 +2.8343624037e+02 2.8343624037e+02 0.0000000000e+00 0.0000e+00 1.0000e+00
       -3 -1    0    0    0  501 -0.0000000000e+00 -0.0000000000e+00 -7.3343226445e+00 7.3343226445e+00 0.0000000000e+00 0.0000e+00 -1.0000e+00
       23  1    1    2    0    0 +0.0000000000e+00 +0.0000000000e+00 +2.7610191772e+02 2.9077056301e+02 9.1188000000e+01 0.0000e+00 1.0000e+00
<mgrwt>
<rscale>  0 0.91188000E+02</rscale>
<asrwt>0</asrwt>
<pdfrwt beam="1">  1        3 0.43605567E-01 0.91188000E+02</pdfrwt>
<pdfrwt beam="2">  1       -3 0.11283576E-02 0.91188000E+02</pdfrwt>
<totfact> 0.24384714E+04</totfact>
</mgrwt>
</event>
<event>
 3      1 +4.2044000e+04 9.11880000e+01 7.54677100e-03 1.30000000e-01
        2 -1    0    0  501    0 +0.0000000000e+00 +0.0000000000e+00 +4.0109476411e+02 4.0109476411e+02 0.0000000000e+00 0.0000e+00 1.0000e+00
       -2 -1    0    0    0  501 -0.0000000000e+00 -0.0000000000e+00 -5.1828471025e+00 5.1828471025e+00 0.0000000000e+00 0.0000e+00 -1.0000e+00
       23  1    1    2    0    0 +0.0000000000e+00 +0.0000000000e+00 +3.9591191701e+02 4.0627761121e+02 9.1188000000e+01 0.0000e+00 1.0000e+00
<mgrwt>
<rscale>  0 0.91188000E+02</rscale>
<asrwt>0</asrwt>
<pdfrwt beam="1">  1        2 0.61706862E-01 0.91188000E+02</pdfrwt>
<pdfrwt beam="2">  1       -2 0.79736141E-03 0.91188000E+02</pdfrwt>
<totfact> 0.19975503E+05</totfact>
</mgrwt>
</event>
<event>
 3      1 +4.2044000e+04 9.11880000e+01 7.54677100e-03 1.30000000e-01
       -2 -1    0    0    0  501 -0.0000000000e+00 +0.0000000000e+00 +2.5377862633e+01 2.5377862633e+01 0.0000000000e+00 0.0000e+00 1.0000e+00
        2 -1    0    0  501    0 +0.0000000000e+00 -0.0000000000e+00 -8.1914417542e+01 8.1914417542e+01 0.0000000000e+00 0.0000e+00 -1.0000e+00
       23  1    1    2    0    0 +0.0000000000e+00 -0.0000000000e+00 -5.6536554909e+01 1.0729228017e+02 9.1188000000e+01 0.0000e+00 1.0000e+00
<mgrwt>
<rscale>  0 0.91188000E+02</rscale>
<asrwt>0</asrwt>
<pdfrwt beam="2">  1        2 0.12602218E-01 0.91188000E+02</pdfrwt>
<pdfrwt beam="1">  1       -2 0.39042866E-02 0.91188000E+02</pdfrwt>
<totfact> 0.11559837E+05</totfact>
</mgrwt>
</event>
<event>
 3      1 +4.2044000e+04 9.11880000e+01 7.54677100e-03 1.30000000e-01
        1 -1    0    0  501    0 +0.0000000000e+00 +0.0000000000e+00 +1.1335013348e+03 1.1335013348e+03 0.0000000000e+00 0.0000e+00 -1.0000e+00
       -1 -1    0    0    0  501 -0.0000000000e+00 -0.0000000000e+00 -1.8339747578e+00 1.8339747578e+00 0.0000000000e+00 0.0000e+00 1.0000e+00
       23  1    1    2    0    0 +0.0000000000e+00 +0.0000000000e+00 +1.1316673601e+03 1.1353353096e+03 9.1188000000e+01 0.0000e+00 -1.0000e+00
<mgrwt>
<rscale>  0 0.91188000E+02</rscale>
<asrwt>0</asrwt>
<pdfrwt beam="1">  1        1 0.17438426E+00 0.91188000E+02</pdfrwt>
<pdfrwt beam="2">  1       -1 0.28215087E-03 0.91188000E+02</pdfrwt>
<totfact> 0.13045296E+05</totfact>
</mgrwt>
</event>
<event>
 3      1 +4.2044000e+04 9.11880000e+01 7.54677100e-03 1.30000000e-01
       -2 -1    0    0    0  501 -0.0000000000e+00 +0.0000000000e+00 +1.5447689580e+02 1.5447689580e+02 0.0000000000e+00 0.0000e+00 1.0000e+00
        2 -1    0    0  501    0 +0.0000000000e+00 -0.0000000000e+00 -1.3457111662e+01 1.3457111662e+01 0.0000000000e+00 0.0000e+00 -1.0000e+00
       23  1    1    2    0    0 +0.0000000000e+00 -0.0000000000e+00 +1.4101978414e+02 1.6793400746e+02 9.1188000000e+01 0.0000e+00 1.0000e+00
<mgrwt>
<rscale>  0 0.91188000E+02</rscale>
<asrwt>0</asrwt>
<pdfrwt beam="2">  1        2 0.20703250E-02 0.91188000E+02</pdfrwt>
<pdfrwt beam="1">  1       -2 0.23765675E-01 0.91188000E+02</pdfrwt>
<totfact> 0.69085092E+04</totfact>
</mgrwt>
</event>
<event>
 3      1 +4.2044000e+04 9.11880000e+01 7.54677100e-03 1.30000000e-01
       -1 -1    0    0    0  501 -0.0000000000e+00 +0.0000000000e+00 +5.2974148645e+00 5.2974148645e+00 0.0000000000e+00 0.0000e+00 1.0000e+00
        1 -1    0    0  501    0 +0.0000000000e+00 -0.0000000000e+00 -3.9242024443e+02 3.9242024443e+02 0.0000000000e+00 0.0000e+00 -1.0000e+00
       23  1    1    2    0    0 +0.0000000000e+00 -0.0000000000e+00 -3.8712282957e+02 3.9771765930e+02 9.1188000000e+01 0.0000e+00 1.0000e+00
<mgrwt>
<rscale>  0 0.91188000E+02</rscale>
<asrwt>0</asrwt>
<pdfrwt beam="2">  1        1 0.60372342E-01 0.91188000E+02</pdfrwt>
<pdfrwt beam="1">  1       -1 0.81498694E-03 0.91188000E+02</pdfrwt>
<totfact> 0.13442227E+05</totfact>
</mgrwt>
</event>
<event>
 3      1 +4.2044000e+04 9.11880000e+01 7.54677100e-03 1.30000000e-01
       -1 -1    0    0    0  501 -0.0000000000e+00 +0.0000000000e+00 +2.5481836322e+02 2.5481836322e+02 0.0000000000e+00 0.0000e+00 1.0000e+00
        1 -1    0    0  501    0 +0.0000000000e+00 -0.0000000000e+00 -8.1580181654e+00 8.1580181654e+00 0.0000000000e+00 0.0000e+00 -1.0000e+00
       23  1    1    2    0    0 +0.0000000000e+00 -0.0000000000e+00 +2.4666034505e+02 2.6297638138e+02 9.1188000000e+01 0.0000e+00 1.0000e+00
<mgrwt>
<rscale>  0 0.91188000E+02</rscale>
<asrwt>0</asrwt>
<pdfrwt beam="2">  1        1 0.12550799E-02 0.91188000E+02</pdfrwt>
<pdfrwt beam="1">  1       -1 0.39202819E-01 0.91188000E+02</pdfrwt>
<totfact> 0.64323681E+04</totfact>
</mgrwt>
</event>
<event>
 3      1 +4.2044000e+04 9.11880000e+01 7.54677100e-03 1.30000000e-01
       -4 -1    0    0    0  501 -0.0000000000e+00 +0.0000000000e+00 +9.3503591716e+01 9.3503591716e+01 0.0000000000e+00 0.0000e+00 1.0000e+00
        4 -1    0    0  501    0 +0.0000000000e+00 -0.0000000000e+00 -2.2232438325e+01 2.2232438325e+01 0.0000000000e+00 0.0000e+00 -1.0000e+00
       23  1    1    2    0    0 +0.0000000000e+00 -0.0000000000e+00 +7.1271153391e+01 1.1573603004e+02 9.1188000000e+01 0.0000e+00 1.0000e+00
<mgrwt>
<rscale>  0 0.91188000E+02</rscale>
<asrwt>0</asrwt>
<pdfrwt beam="2">  1        4 0.34203752E-02 0.91188000E+02</pdfrwt>
<pdfrwt beam="1">  1       -4 0.14385168E-01 0.91188000E+02</pdfrwt>
<totfact> 0.25508339E+04</totfact>
</mgrwt>
</event>
<event>
 3      1 +4.2044000e+04 9.11880000e+01 7.54677100e-03 1.30000000e-01
        2 -1    0    0  501    0 +0.0000000000e+00 +0.0000000000e+00 +1.6232959854e+02 1.6232959854e+02 0.0000000000e+00 0.0000e+00 -1.0000e+00
       -2 -1    0    0    0  501 -0.0000000000e+00 -0.0000000000e+00 -1.2806123188e+01 1.2806123188e+01 0.0000000000e+00 0.0000e+00 1.0000e+00
       23  1    1    2    0    0 +0.0000000000e+00 +0.0000000000e+00 +1.4952347536e+02 1.7513572173e+02 9.1188000000e+01 0.0000e+00 -1.0000e+00
<mgrwt>
<rscale>  0 0.91188000E+02</rscale>
<asrwt>0</asrwt>
<pdfrwt beam="1">  1        2 0.24973783E-01 0.91188000E+02</pdfrwt>
<pdfrwt beam="2">  1       -2 0.19701729E-02 0.91188000E+02</pdfrwt>
<totfact> 0.14360464E+05</totfact>
</mgrwt>
</event>
<event>
 3      1 +4.2044000e+04 9.11880000e+01 7.54677100e-03 1.30000000e-01
        1 -1    0    0  501    0 +0.0000000000e+00 +0.0000000000e+00 +7.3097953867e+02 7.3097953867e+02 0.0000000000e+00 0.0000e+00 -1.0000e+00
       -1 -1    0    0    0  501 -0.0000000000e+00 -0.0000000000e+00 -2.8438728118e+00 2.8438728118e+00 0.0000000000e+00 0.0000e+00 1.0000e+00
       23  1    1    2    0    0 +0.0000000000e+00 +0.0000000000e+00 +7.2813566586e+02 7.3382341149e+02 9.1188000000e+01 0.0000e+00 -1.0000e+00
<mgrwt>
<rscale>  0 0.91188000E+02</rscale>
<asrwt>0</asrwt>
<pdfrwt beam="1">  1        1 0.11245824E+00 0.91188000E+02</pdfrwt>
<pdfrwt beam="2">  1       -1 0.43751948E-03 0.91188000E+02</pdfrwt>
<totfact> 0.14200371E+05</totfact>
</mgrwt>
</event>
<event>
 3      1 +4.2044000e+04 9.11880000e+01 7.54677100e-03 1.30000000e-01
        2 -1    0    0  501    0 +0.0000000000e+00 +0.0000000000e+00 +2.0533403487e+02 2.0533403487e+02 0.0000000000e+00 0.0000e+00 -1.0000e+00
       -2 -1    0    0    0  501 -0.0000000000e+00 -0.0000000000e+00 -1.0124053898e+01 1.0124053898e+01 0.0000000000e+00 0.0000e+00 1.0000e+00
       23  1    1    2    0    0 +0.0000000000e+00 +0.0000000000e+00 +1.9520998097e+02 2.1545808876e+02 9.1188000000e+01 0.0000e+00 -1.0000e+00
<mgrwt>
<rscale>  0 0.91188000E+02</rscale>
<asrwt>0</asrwt>
<pdfrwt beam="1">  1        2 0.31589848E-01 0.91188000E+02</pdfrwt>
<pdfrwt beam="2">  1       -2 0.15575469E-02 0.91188000E+02</pdfrwt>
<totfact> 0.15611032E+05</totfact>
</mgrwt>
</event>
<event>
 3      1 +4.2044000e+04 9.11880000e+01 7.54677100e-03 1.30000000e-01
        2 -1    0    0  501    0 +0.0000000000e+00 +0.0000000000e+00 +5.2582613047e+02 5.2582613047e+02 0.0000000000e+00 0.0000e+00 -1.0000e+00
       -2 -1    0    0    0  501 -0.0000000000e+00 -0.0000000000e+00 -3.9534224633e+00 3.9534224633e+00 0.0000000000e+00 0.0000e+00 1.0000e+00
       23  1    1    2    0    0 +0.0000000000e+00 +0.0000000000e+00 +5.2187270801e+02 5.2977955294e+02 9.1188000000e+01 0.0000e+00 -1.0000e+00
<mgrwt>
<rscale>  0 0.91188000E+02</rscale>
<asrwt>0</asrwt>
<pdfrwt beam="1">  1        2 0.80896272E-01 0.91188000E+02</pdfrwt>
<pdfrwt beam="2">  1       -2 0.60821926E-03 0.91188000E+02</pdfrwt>
<totfact> 0.21892711E+05</totfact>
</mgrwt>
</event>
<event>
 3      1 +4.2044000e+04 9.11880000e+01 7.54677100e-03 1.30000000e-01
        3 -1    0    0  501    0 +0.0000000000e+00 +0.0000000000e+00 +2.5889481389e+02 2.5889481389e+02 0.0000000000e+00 0.0000e+00 -1.0000e+00
       -3 -1    0    0    0  501 -0.0000000000e+00 -0.0000000000e+00 -8.0295653851e+00 8.0295653851e+00 0.0000000000e+00 0.0000e+00 1.0000e+00
       23  1    1    2    0    0 +0.0000000000e+00 +0.0000000000e+00 +2.5086524851e+02 2.6692437928e+02 9.1188000000e+01 0.0000e+00 -1.0000e+00
<mgrwt>
<rscale>  0 0.91188000E+02</rscale>
<asrwt>0</asrwt>
<pdfrwt beam="1">  1        3 0.39829965E-01 0.91188000E+02</pdfrwt>
<pdfrwt beam="2">  1       -3 0.12353180E-02 0.91188000E+02</pdfrwt>
<totfact> 0.25361660E+04</totfact>
</mgrwt>
</event>
<event>
 3      1 +4.2044000e+04 9.11880000e+01 7.54677100e-03 1.30000000e-01
       -3 -1    0    0    0  501 -0.0000000000e+00 +0.0000000000e+00 +1.1688434768e+02 1.1688434768e+02 0.0000000000e+00 0.0000e+00 1.0000e+00
        3 -1    0    0  501    0 +0.0000000000e+00 -0.0000000000e+00 -1.7785211427e+01 1.7785211427e+01 0.0000000000e+00 0.0000e+00 -1.0000e+00
       23  1    1    2    0    0 +0.0000000000e+00 -0.0000000000e+00 +9.9099136255e+01 1.3466955911e+02 9.1188000000e+01 0.0000e+00 1.0000e+00
<mgrwt>
<rscale>  0 0.91188000E+02</rscale>
<asrwt>0</asrwt>
<pdfrwt beam="2">  1        3 0.27361864E-02 0.91188000E+02</pdfrwt>
<pdfrwt beam="1">  1       -3 0.17982207E-01 0.91188000E+02</pdfrwt>
<totfact> 0.32262158E+04</totfact>
</mgrwt>
</event>
<event>
 3      1 +4.2044000e+04 9.11880000e+01 7.54677100e-03 1.30000000e-01
       -2 -1    0    0    0  501 -0.0000000000e+00 +0.0000000000e+00 +1.2022234864e+03 1.2022234864e+03 0.0000000000e+00 0.0000e+00 -1.0000e+00
        2 -1    0    0  501    0 +0.0000000000e+00 -0.0000000000e+00 -1.7291400971e+00 1.7291400971e+00 0.0000000000e+00 0.0000e+00 1.0000e+00
       23  1    1    2    0    0 +0.0000000000e+00 -0.0000000000e+00 +1.2004943463e+03 1.2039526265e+03 9.1188000000e+01 0.0000e+00 -1.0000e+00
<mgrwt>
<rscale>  0 0.91188000E+02</rscale>
<asrwt>0</asrwt>
<pdfrwt beam="2">  1        2 0.26602251E-03 0.91188000E+02</pdfrwt>
<pdfrwt beam="1">  1       -2 0.18495679E+00 0.91188000E+02</pdfrwt>
<totfact> 0.14815419E+04</totfact>
</mgrwt>
</event>
<event>
 3      1 +4.2044000e+04 9.11880000e+01 7.54677100e-03 1.30000000e-01
        1 -1    0    0  501    0 +0.0000000000e+00 +0.0000000000e+00 +3.2509226441e+02 3.2509226441e+02 0.0000000000e+00 0.0000e+00 -1.0000e+00
       -1 -1    0    0    0  501 -0.0000000000e+00 -0.0000000000e+00 -6.3945318409e+00 6.3945318409e+00 0.0000000000e+00 0.0000e+00 1.0000e+00
       23  1    1    2    0    0 +0.0000000000e+00 +0.0000000000e+00 +3.1869773257e+02 3.3148679625e+02 9.1188000000e+01 0.0000e+00 -1.0000e+00
<mgrwt>
<rscale>  0 0.91188000E+02</rscale>
<asrwt>0</asrwt>
<pdfrwt beam="1">  1        1 0.50014181E-01 0.91188000E+02</pdfrwt>
<pdfrwt beam="2">  1       -1 0.98377439E-03 0.91188000E+02</pdfrwt>
<totfact> 0.13003015E+05</totfact>
</mgrwt>
</event>
<event>
 3      1 +4.2044000e+04 9.11880000e+01 7.54677100e-03 1.30000000e-01
        1 -1    0    0  501    0 +0.0000000000e+00 +0.0000000000e+00 +1.3735263660e+01 1.3735263660e+01 0.0000000000e+00 0.0000e+00 -1.0000e+00
       -1 -1    0    0    0  501 -0.0000000000e+00 -0.0000000000e+00 -1.5134859347e+02 1.5134859347e+02 0.0000000000e+00 0.0000e+00 1.0000e+00
       23  1    1    2    0    0 +0.0000000000e+00 +0.0000000000e+00 -1.3761332981e+02 1.6508385713e+02 9.1188000000e+01 0.0000e+00 -1.0000e+00
<mgrwt>
<rscale>  0 0.91188000E+02</rscale>
<asrwt>0</asrwt>
<pdfrwt beam="1">  1        1 0.21131175E-02 0.91188000E+02</pdfrwt>
<pdfrwt beam="2">  1       -1 0.23284399E-01 0.91188000E+02</pdfrwt>
<totfact> 0.74607757E+04</totfact>
</mgrwt>
</event>
<event>
 3      1 +4.2044000e+04 9.11880000e+01 7.54677100e-03 1.30000000e-01
        1 -1    0    0  501    0 +0.0000000000e+00 +0.0000000000e+00 +1.1309455695e+01 1.1309455695e+01 0.0000000000e+00 0.0000e+00 -1.0000e+00
       -1 -1    0    0    0  501 -0.0000000000e+00 -0.0000000000e+00 -1.8381192624e+02 1.8381192624e+02 0.0000000000e+00 0.0000e+00 1.0000e+00
       23  1    1    2    0    0 +0.0000000000e+00 +0.0000000000e+00 -1.7250247054e+02 1.9512138193e+02 9.1188000000e+01 0.0000e+00 -1.0000e+00
<mgrwt>
<rscale>  0 0.91188000E+02</rscale>
<asrwt>0</asrwt>
<pdfrwt beam="1">  1        1 0.17399161E-02 0.91188000E+02</pdfrwt>
<pdfrwt beam="2">  1       -1 0.28278761E-01 0.91188000E+02</pdfrwt>
<totfact> 0.71047460E+04</totfact>
</mgrwt>
</event>
<event>
 3      1 +4.2044000e+04 9.11880000e+01 7.54677100e-03 1.30000000e-01
       -1 -1    0    0    0  501 -0.0000000000e+00 +0.0000000000e+00 +1.6577603832e+01 1.6577603832e+01 0.0000000000e+00 0.0000e+00 1.0000e+00
        1 -1    0    0  501    0 +0.0000000000e+00 -0.0000000000e+00 -1.2539887290e+02 1.2539887290e+02 0.0000000000e+00 0.0000e+00 -1.0000e+00
       23  1    1    2    0    0 +0.0000000000e+00 -0.0000000000e+00 -1.0882126907e+02 1.4197647674e+02 9.1188000000e+01 0.0000e+00 1.0000e+00
<mgrwt>
<rscale>  0 0.91188000E+02</rscale>
<asrwt>0</asrwt>
<pdfrwt beam="2">  1        1 0.19292135E-01 0.91188000E+02</pdfrwt>
<pdfrwt beam="1">  1       -1 0.25504005E-02 0.91188000E+02</pdfrwt>
<totfact> 0.10853615E+05</totfact>
</mgrwt>
</event>
<event>
 3      1 +4.2044000e+04 9.11880000e+01 7.54677100e-03 1.30000000e-01
        2 -1    0    0  501    0 +0.0000000000e+00 +0.0000000000e+00 +1.1623932733e+01 1.1623932733e+01 0.0000000000e+00 0.0000e+00 1.0000e+00
       -2 -1    0    0    0  501 -0.0000000000e+00 -0.0000000000e+00 -1.7883902839e+02 1.7883902839e+02 0.0000000000e+00 0.0000e+00 -1.0000e+00
       23  1    1    2    0    0 +0.0000000000e+00 +0.0000000000e+00 -1.6721509566e+02 1.9046296112e+02 9.1188000000e+01 0.0000e+00 1.0000e+00
<mgrwt>
<rscale>  0 0.91188000E+02</rscale>
<asrwt>0</asrwt>
<pdfrwt beam="1">  1        2 0.17882976E-02 0.91188000E+02</pdfrwt>
<pdfrwt beam="2">  1       -2 0.27513693E-01 0.91188000E+02</pdfrwt>
<totfact> 0.65284168E+04</totfact>
</mgrwt>
</event>
<event>
 3      1 +4.2044000e+04 9.11880000e+01 7.54677100e-03 1.30000000e-01
       -1 -1    0    0    0  501 -0.0000000000e+00 +0.0000000000e+00 +6.5795330455e+01 6.5795330455e+01 0.0000000000e+00 0.0000e+00 1.0000e+00
        1 -1    0    0  501    0 +0.0000000000e+00 -0.0000000000e+00 -3.1595142415e+01 3.1595142415e+01 0.0000000000e+00 0.0000e+00 -1.0000e+00
       23  1    1    2    0    0 +0.0000000000e+00 -0.0000000000e+00 +3.4200188040e+01 9.7390472871e+01 9.1188000000e+01 0.0000e+00 1.0000e+00
<mgrwt>
<rscale>  0 0.91188000E+02</rscale>
<asrwt>0</asrwt>
<pdfrwt beam="2">  1        1 0.48607912E-02 0.91188000E+02</pdfrwt>
<pdfrwt beam="1">  1       -1 0.10122358E-01 0.91188000E+02</pdfrwt>
<totfact> 0.87376079E+04</totfact>
</mgrwt>
</event>
<event>
 3      1 +4.2044000e+04 9.11880000e+01 7.54677100e-03 1.30000000e-01
       -2 -1    0    0    0  501 -0.0000000000e+00 +0.0000000000e+00 +1.4210192251e+02 1.4210192251e+02 0.0000000000e+00 0.0000e+00 1.0000e+00
        2 -1    0    0  501    0 +0.0000000000e+00 -0.0000000000e+00 -1.4629026823e+01 1.4629026823e+01 0.0000000000e+00 0.0000e+00 -1.0000e+00
       23  1    1    2    0    0 +0.0000000000e+00 -0.0000000000e+00 +1.2747289569e+02 1.5673094934e+02 9.1188000000e+01 0.0000e+00 1.0000e+00
<mgrwt>
<rscale>  0 0.91188000E+02</rscale>
<asrwt>0</asrwt>
<pdfrwt beam="2">  1        2 0.22506196E-02 0.91188000E+02</pdfrwt>
<pdfrwt beam="1">  1       -2 0.21861833E-01 0.91188000E+02</pdfrwt>
<totfact> 0.71203113E+04</totfact>
</mgrwt>
</event>
<event>
 3      1 +4.2044000e+04 9.11880000e+01 7.54677100e-03 1.30000000e-01
       -2 -1    0    0    0  501 -0.0000000000e+00 +0.0000000000e+00 +9.6910065256e-01 9.6910065256e-01 0.0000000000e+00 0.0000e+00 1.0000e+00
        2 -1    0    0  501    0 +0.0000000000e+00 -0.0000000000e+00 -2.1450948676e+03 2.1450948676e+03 0.0000000000e+00 0.0000e+00 -1.0000e+00
       23  1    1    2    0    0 +0.0000000000e+00 -0.0000000000e+00 -2.1441257669e+03 2.1460639682e+03 9.1188000000e+01 0.0000e+00 1.0000e+00
<mgrwt>
<rscale>  0 0.91188000E+02</rscale>
<asrwt>0</asrwt>
<pdfrwt beam="2">  1        2 0.33001440E+00 0.91188000E+02</pdfrwt>
<pdfrwt beam="1">  1       -2 0.14909250E-03 0.91188000E+02</pdfrwt>
<totfact> 0.18311304E+05</totfact>
</mgrwt>
</event>
<event>
 3      1 +4.2044000e+04 9.11880000e+01 7.54677100e-03 1.30000000e-01
        4 -1    0    0  501    0 +0.0000000000e+00 +0.0000000000e+00 +1.0878467940e+02 1.0878467940e+02 0.0000000000e+00 0.0000e+00 -1.0000e+00
       -4 -1    0    0    0  501 -0.0000000000e+00 -0.0000000000e+00 -1.9109426507e+01 1.9109426507e+01 0.0000000000e+00 0.0000e+00 1.0000e+00
       23  1    1    2    0    0 +0.0000000000e+00 +0.0000000000e+00 +8.9675252890e+01 1.2789410590e+02 9.1188000000e+01 0.0000e+00 -1.0000e+00
<mgrwt>
<rscale>  0 0.91188000E+02</rscale>
<asrwt>0</asrwt>
<pdfrwt beam="1">  1        4 0.16736104E-01 0.91188000E+02</pdfrwt>
<pdfrwt beam="2">  1       -4 0.29399118E-02 0.91188000E+02</pdfrwt>
<totfact> 0.24824570E+04</totfact>
</mgrwt>
</event>
<event>
 3      1 +4.2044000e+04 9.11880000e+01 7.54677100e-03 1.30000000e-01
        3 -1    0    0  501    0 +0.0000000000e+00 +0.0000000000e+00 +1.0619605381e+00 1.0619605381e+00 0.0000000000e+00 0.0000e+00 -1.0000e+00
       -3 -1    0    0    0  501 -0.0000000000e+00 -0.0000000000e+00 -1.9575236193e+03 1.9575236193e+03 0.0000000000e+00 0.0000e+00 1.0000e+00
       23  1    1    2    0    0 +0.0000000000e+00 +0.0000000000e+00 -1.9564616587e+03 1.9585855798e+03 9.1188000000e+01 0.0000e+00 -1.0000e+00
<mgrwt>
<rscale>  0 0.91188000E+02</rscale>
<asrwt>0</asrwt>
<pdfrwt beam="1">  1        3 0.16337861E-03 0.91188000E+02</pdfrwt>
<pdfrwt beam="2">  1       -3 0.30115736E+00 0.91188000E+02</pdfrwt>
<totfact> 0.37706863E+03</totfact>
</mgrwt>
</event>
<event>
 3      1 +4.2044000e+04 9.11880000e+01 7.54677100e-03 1.30000000e-01
       -2 -1    0    0    0  501 -0.0000000000e+00 +0.0000000000e+00 +3.8892246719e+01 3.8892246719e+01 0.0000000000e+00 0.0000e+00 1.0000e+00
        2 -1    0    0  501    0 +0.0000000000e+00 -0.0000000000e+00 -5.3450572064e+01 5.3450572064e+01 0.0000000000e+00 0.0000e+00 -1.0000e+00
       23  1    1    2    0    0 +0.0000000000e+00 -0.0000000000e+00 -1.4558325345e+01 9.2342818783e+01 9.1188000000e+01 0.0000e+00 1.0000e+00
<mgrwt>
<rscale>  0 0.91188000E+02</rscale>
<asrwt>0</asrwt>
<pdfrwt beam="2">  1        2 0.82231649E-02 0.91188000E+02</pdfrwt>
<pdfrwt beam="1">  1       -2 0.59834226E-02 0.91188000E+02</pdfrwt>
<totfact> 0.10282658E+05</totfact>
</mgrwt>
</event>
<event>
 3      1 +4.2044000e+04 9.11880000e+01 7.54677100e-03 1.30000000e-01
        3 -1    0    0  501    0 +0.0000000000e+00 +0.0000000000e+00 +2.2028660660e+02 2.2028660660e+02 0.0000000000e+00 0.0000e+00 -1.0000e+00
       -3 -1    0    0    0  501 -0.0000000000e+00 -0.0000000000e+00 -9.4368553228e+00 9.4368553228e+00 0.0000000000e+00 0.0000e+00 1.0000e+00
       23  1    1    2    0    0 +0.0000000000e+00 +0.0000000000e+00 +2.1084975127e+02 2.2972346192e+02 9.1188000000e+01 0.0000e+00 -1.0000e+00
<mgrwt>
<rscale>  0 0.91188000E+02</rscale>
<asrwt>0</asrwt>
<pdfrwt beam="1">  1        3 0.33890243E-01 0.91188000E+02</pdfrwt>
<pdfrwt beam="2">  1       -3 0.14518241E-02 0.91188000E+02</pdfrwt>
<totfact> 0.27022567E+04</totfact>
</mgrwt>
</event>
<event>
 3      1 +4.2044000e+04 9.11880000e+01 7.54677100e-03 1.30000000e-01
        2 -1    0    0  501    0 +0.0000000000e+00 +0.0000000000e+00 +3.3339324911e+01 3.3339324911e+01 0.0000000000e+00 0.0000e+00 -1.0000e+00
       -2 -1    0    0    0  501 -0.0000000000e+00 -0.0000000000e+00 -6.2353177263e+01 6.2353177263e+01 0.0000000000e+00 0.0000e+00 1.0000e+00
       23  1    1    2    0    0 +0.0000000000e+00 +0.0000000000e+00 -2.9013852353e+01 9.5692502174e+01 9.1188000000e+01 0.0000e+00 -1.0000e+00
<mgrwt>
<rscale>  0 0.91188000E+02</rscale>
<asrwt>0</asrwt>
<pdfrwt beam="1">  1        2 0.51291269E-02 0.91188000E+02</pdfrwt>
<pdfrwt beam="2">  1       -2 0.95927966E-02 0.91188000E+02</pdfrwt>
<totfact> 0.90939318E+04</totfact>
</mgrwt>
</event>
<event>
 3      1 +4.2044000e+04 9.11880000e+01 7.54677100e-03 1.30000000e-01
       -3 -1    0    0    0  501 -0.0000000000e+00 +0.0000000000e+00 +4.3250259988e+01 4.3250259988e+01 0.0000000000e+00 0.0000e+00 1.0000e+00
        3 -1    0    0  501    0 +0.0000000000e+00 -0.0000000000e+00 -4.8064747740e+01 4.8064747740e+01 0.0000000000e+00 0.0000e+00 -1.0000e+00
       23  1    1    2    0    0 +0.0000000000e+00 -0.0000000000e+00 -4.8144877518e+00 9.1315007728e+01 9.1188000000e+01 0.0000e+00 1.0000e+00
<mgrwt>
<rscale>  0 0.91188000E+02</rscale>
<asrwt>0</asrwt>
<pdfrwt beam="2">  1        3 0.73945766E-02 0.91188000E+02</pdfrwt>
<pdfrwt beam="1">  1       -3 0.66538862E-02 0.91188000E+02</pdfrwt>
<totfact> 0.35316144E+04</totfact>
</mgrwt>
</event>
<event>
 3      1 +4.2044000e+04 9.11880000e+01 7.54677100e-03 1.30000000e-01
        2 -1    0    0  501    0 +0.0000000000e+00 +0.0000000000e+00 +8.4742935692e+02 8.4742935692e+02 0.0000000000e+00 0.0000e+00 -1.0000e+00
       -2 -1    0    0    0  501 -0.0000000000e+00 -0.0000000000e+00 -2.4530809784e+00 2.4530809784e+00 0.0000000000e+00 0.0000e+00 1.0000e+00
       23  1    1    2    0    0 +0.0000000000e+00 +0.0000000000e+00 +8.4497627594e+02 8.4988243790e+02 9.1188000000e+01 0.0000e+00 -1.0000e+00
<mgrwt>
<rscale>  0 0.91188000E+02</rscale>
<asrwt>0</asrwt>
<pdfrwt beam="1">  1        2 0.13037351E+00 0.91188000E+02</pdfrwt>
<pdfrwt beam="2">  1       -2 0.37739775E-03 0.91188000E+02</pdfrwt>
<totfact> 0.24593447E+05</totfact>
</mgrwt>
</event>
<event>
 3      1 +4.2044000e+04 9.11880000e+01 7.54677100e-03 1.30000000e-01
        1 -1    0    0  501    0 +0.0000000000e+00 +0.0000000000e+00 +2.3199047315e+01 2.3199047315e+01 0.0000000000e+00 0.0000e+00 -1.0000e+00
       -1 -1    0    0    0  501 -0.0000000000e+00 -0.0000000000e+00 -8.9607681203e+01 8.9607681203e+01 0.0000000000e+00 0.0000e+00 1.0000e+00
       23  1    1    2    0    0 +0.0000000000e+00 +0.0000000000e+00 -6.6408633888e+01 1.1280672852e+02 9.1188000000e+01 0.0000e+00 -1.0000e+00
<mgrwt>
<rscale>  0 0.91188000E+02</rscale>
<asrwt>0</asrwt>
<pdfrwt beam="1">  1        1 0.35690842E-02 0.91188000E+02</pdfrwt>
<pdfrwt beam="2">  1       -1 0.13785797E-01 0.91188000E+02</pdfrwt>
<totfact> 0.82980213E+04</totfact>
</mgrwt>
</event>
<event>
 3      1 +4.2044000e+04 9.11880000e+01 7.54677100e-03 1.30000000e-01
       -2 -1    0    0    0  501 -0.0000000000e+00 +0.0000000000e+00 +2.6406846263e+00 2.6406846263e+00 0.0000000000e+00 0.0000e+00 1.0000e+00
        2 -1    0    0  501    0 +0.0000000000e+00 -0.0000000000e+00 -7.8722495496e+02 7.8722495496e+02 0.0000000000e+00 0.0000e+00 -1.0000e+00
       23  1    1    2    0    0 +0.0000000000e+00 -0.0000000000e+00 -7.8458427034e+02 7.8986563959e+02 9.1188000000e+01 0.0000e+00 1.0000e+00
<mgrwt>
<rscale>  0 0.91188000E+02</rscale>
<asrwt>0</asrwt>
<pdfrwt beam="2">  1        2 0.12111159E+00 0.91188000E+02</pdfrwt>
<pdfrwt beam="1">  1       -2 0.40625899E-03 0.91188000E+02</pdfrwt>
<totfact> 0.24295798E+05</totfact>
</mgrwt>
</event>
<event>
 3      1 +4.2044000e+04 9.11880000e+01 7.54677100e-03 1.30000000e-01
       -1 -1    0    0    0  501 -0.0000000000e+00 +0.0000000000e+00 +3.0338693742e+02 3.0338693742e+02 0.0000000000e+00 0.0000e+00 1.0000e+00
        1 -1    0    0  501    0 +0.0000000000e+00 -0.0000000000e+00 -6.8520182631e+00 6.8520182631e+00 0.0000000000e+00 0.0000e+00 -1.0000e+00
       23  1    1    2    0    0 +0.0000000000e+00 -0.0000000000e+00 +2.9653491916e+02 3.1023895569e+02 9.1188000000e+01 0.0000e+00 1.0000e+00
<mgrwt>
<rscale>  0 0.91188000E+02</rscale>
<asrwt>0</asrwt>
<pdfrwt beam="2">  1        1 0.10541569E-02 0.91188000E+02</pdfrwt>
<pdfrwt beam="1">  1       -1 0.46674903E-01 0.91188000E+02</pdfrwt>
<totfact> 0.60298617E+04</totfact>
</mgrwt>
</event>
<event>
 3      1 +4.2044000e+04 9.11880000e+01 7.54677100e-03 1.30000000e-01
       -2 -1    0    0    0  501 -0.0000000000e+00 +0.0000000000e+00 +2.4163437387e+00 2.4163437387e+00 0.0000000000e+00 0.0000e+00 1.0000e+00
        2 -1    0    0  501    0 +0.0000000000e+00 -0.0000000000e+00 -8.6031337459e+02 8.6031337459e+02 0.0000000000e+00 0.0000e+00 -1.0000e+00
       23  1    1    2    0    0 +0.0000000000e+00 -0.0000000000e+00 -8.5789703085e+02 8.6272971833e+02 9.1188000000e+01 0.0000e+00 1.0000e+00
<mgrwt>
<rscale>  0 0.91188000E+02</rscale>
<asrwt>0</asrwt>
<pdfrwt beam="2">  1        2 0.13235592E+00 0.91188000E+02</pdfrwt>
<pdfrwt beam="1">  1       -2 0.37174514E-03 0.91188000E+02</pdfrwt>
<totfact> 0.24646318E+05</totfact>
</mgrwt>
</event>
<event>
 3      1 +4.2044000e+04 9.11880000e+01 7.54677100e-03 1.30000000e-01
       -1 -1    0    0    0  501 -0.0000000000e+00 +0.0000000000e+00 +1.6837286177e+00 1.6837286177e+00 0.0000000000e+00 0.0000e+00 1.0000e+00
        1 -1    0    0  501    0 +0.0000000000e+00 -0.0000000000e+00 -1.2346483953e+03 1.2346483953e+03 0.0000000000e+00 0.0000e+00 -1.0000e+00
       23  1    1    2    0    0 +0.0000000000e+00 -0.0000000000e+00 -1.2329646667e+03 1.2363321239e+03 9.1188000000e+01 0.0000e+00 1.0000e+00
<mgrwt>
<rscale>  0 0.91188000E+02</rscale>
<asrwt>0</asrwt>
<pdfrwt beam="2">  1        1 0.18994684E+00 0.91188000E+02</pdfrwt>
<pdfrwt beam="1">  1       -1 0.25903390E-03 0.91188000E+02</pdfrwt>
<totfact> 0.12550078E+05</totfact>
</mgrwt>
</event>
<event>
 3      1 +4.2044000e+04 9.11880000e+01 7.54677100e-03 1.30000000e-01
       -1 -1    0    0    0  501 -0.0000000000e+00 +0.0000000000e+00 +1.5979725857e+00 1.5979725857e+00 0.0000000000e+00 0.0000e+00 1.0000e+00
        1 -1    0    0  501    0 +0.0000000000e+00 -0.0000000000e+00 -1.3009064452e+03 1.3009064452e+03 0.0000000000e+00 0.0000e+00 -1.0000e+00
       23  1    1    2    0    0 +0.0000000000e+00 -0.0000000000e+00 -1.2993084726e+03 1.3025044178e+03 9.1188000000e+01 0.0000e+00 1.0000e+00
<mgrwt>
<rscale>  0 0.91188000E+02</rscale>
<asrwt>0</asrwt>
<pdfrwt beam="2">  1        1 0.20013896E+00 0.91188000E+02</pdfrwt>
<pdfrwt beam="1">  1       -1 0.24584255E-03 0.91188000E+02</pdfrwt>
<totfact> 0.12197940E+05</totfact>
</mgrwt>
</event>
<event>
 3      1 +4.2044000e+04 9.11880000e+01 7.54677100e-03 1.30000000e-01
        2 -1    0    0  501    0 +0.0000000000e+00 +0.0000000000e+00 +3.7701435041e+00 3.7701435041e+00 0.0000000000e+00 0.0000e+00 -1.0000e+00
       -2 -1    0    0    0  501 -0.0000000000e+00 -0.0000000000e+00 -5.5138825187e+02 5.5138825187e+02 0.0000000000e+00 0.0000e+00 1.0000e+00
       23  1    1    2    0    0 +0.0000000000e+00 +0.0000000000e+00 -5.4761810836e+02 5.5515839537e+02 9.1188000000e+01 0.0000e+00 -1.0000e+00
<mgrwt>
<rscale>  0 0.91188000E+02</rscale>
<asrwt>0</asrwt>
<pdfrwt beam="1">  1        2 0.58002243E-03 0.91188000E+02</pdfrwt>
<pdfrwt beam="2">  1       -2 0.84828911E-01 0.91188000E+02</pdfrwt>
<totfact> 0.33559511E+04</totfact>
</mgrwt>
</event>
<event>
 3      1 +4.2044000e+04 9.11880000e+01 7.54677100e-03 1.30000000e-01
       -2 -1    0    0    0  501 -0.0000000000e+00 +0.0000000000e+00 +9.8356968092e+01 9.8356968092e+01 0.0000000000e+00 0.0000e+00 1.0000e+00
        2 -1    0    0  501    0 +0.0000000000e+00 -0.0000000000e+00 -2.1135389554e+01 2.1135389554e+01 0.0000000000e+00 0.0000e+00 -1.0000e+00
       23  1    1    2    0    0 +0.0000000000e+00 -0.0000000000e+00 +7.7221578537e+01 1.1949235765e+02 9.1188000000e+01 0.0000e+00 1.0000e+00
<mgrwt>
<rscale>  0 0.91188000E+02</rscale>
<asrwt>0</asrwt>
<pdfrwt beam="2">  1        2 0.32515985E-02 0.91188000E+02</pdfrwt>
<pdfrwt beam="1">  1       -2 0.15131841E-01 0.91188000E+02</pdfrwt>
<totfact> 0.80176029E+04</totfact>
</mgrwt>
</event>
<event>
 3      1 +4.2044000e+04 9.11880000e+01 7.54677100e-03 1.30000000e-01
        2 -1    0    0  501    0 +0.0000000000e+00 +0.0000000000e+00 +3.9905772994e+02 3.9905772994e+02 0.0000000000e+00 0.0000e+00 -1.0000e+00
       -2 -1    0    0    0  501 -0.0000000000e+00 -0.0000000000e+00 -5.2093035168e+00 5.2093035168e+00 0.0000000000e+00 0.0000e+00 1.0000e+00
       23  1    1    2    0    0 +0.0000000000e+00 +0.0000000000e+00 +3.9384842643e+02 4.0426703346e+02 9.1188000000e+01 0.0000e+00 -1.0000e+00
<mgrwt>
<rscale>  0 0.91188000E+02</rscale>
<asrwt>0</asrwt>
<pdfrwt beam="1">  1        2 0.61393473E-01 0.91188000E+02</pdfrwt>
<pdfrwt beam="2">  1       -2 0.80143163E-03 0.91188000E+02</pdfrwt>
<totfact> 0.19939177E+05</totfact>
</mgrwt>
</event>
<event>
 3      1 +4.2044000e+04 9.11880000e+01 7.54677100e-03 1.30000000e-01
       -2 -1    0    0    0  501 -0.0000000000e+00 +0.0000000000e+00 +1.9170745074e+02 1.9170745074e+02 0.0000000000e+00 0.0000e+00 1.0000e+00
        2 -1    0    0  501    0 +0.0000000000e+00 -0.0000000000e+00 -1.0843672627e+01 1.0843672627e+01 0.0000000000e+00 0.0000e+00 -1.0000e+00
       23  1    1    2    0    0 +0.0000000000e+00 -0.0000000000e+00 +1.8086377812e+02 2.0255112337e+02 9.1188000000e+01 0.0000e+00 1.0000e+00
<mgrwt>
<rscale>  0 0.91188000E+02</rscale>
<asrwt>0</asrwt>
<pdfrwt beam="2">  1        2 0.16682575E-02 0.91188000E+02</pdfrwt>
<pdfrwt beam="1">  1       -2 0.29493451E-01 0.91188000E+02</pdfrwt>
<totfact> 0.63437477E+04</totfact>
</mgrwt>
</event>
<event>
 3      1 +4.2044000e+04 9.11880000e+01 7.54677100e-03 1.30000000e-01
       -2 -1    0    0    0  501 -0.0000000000e+00 +0.0000000000e+00 +1.0629367327e+01 1.0629367327e+01 0.0000000000e+00 0.0000e+00 1.0000e+00
        2 -1    0    0  501    0 +0.0000000000e+00 -0.0000000000e+00 -1.9557258414e+02 1.9557258414e+02 0.0000000000e+00 0.0000e+00 -1.0000e+00
       23  1    1    2    0    0 +0.0000000000e+00 -0.0000000000e+00 -1.8494321681e+02 2.0620195147e+02 9.1188000000e+01 0.0000e+00 1.0000e+00
<mgrwt>
<rscale>  0 0.91188000E+02</rscale>
<asrwt>0</asrwt>
<pdfrwt beam="2">  1        2 0.30088087E-01 0.91188000E+02</pdfrwt>
<pdfrwt beam="1">  1       -2 0.16352875E-02 0.91188000E+02</pdfrwt>
<totfact> 0.15338408E+05</totfact>
</mgrwt>
</event>
<event>
 3      1 +4.2044000e+04 9.11880000e+01 7.54677100e-03 1.30000000e-01
       -1 -1    0    0    0  501 -0.0000000000e+00 +0.0000000000e+00 +2.2081147726e+00 2.2081147726e+00 0.0000000000e+00 0.0000e+00 1.0000e+00
        1 -1    0    0  501    0 +0.0000000000e+00 -0.0000000000e+00 -9.4144238415e+02 9.4144238415e+02 0.0000000000e+00 0.0000e+00 -1.0000e+00
       23  1    1    2    0    0 +0.0000000000e+00 -0.0000000000e+00 -9.3923426938e+02 9.4365049893e+02 9.1188000000e+01 0.0000e+00 1.0000e+00
<mgrwt>
<rscale>  0 0.91188000E+02</rscale>
<asrwt>0</asrwt>
<pdfrwt beam="2">  1        1 0.14483759E+00 0.91188000E+02</pdfrwt>
<pdfrwt beam="1">  1       -1 0.33970925E-03 0.91188000E+02</pdfrwt>
<totfact> 0.13793580E+05</totfact>
</mgrwt>
</event>
<event>
 3      1 +4.2044000e+04 9.11880000e+01 7.54677100e-03 1.30000000e-01
       -1 -1    0    0    0  501 -0.0000000000e+00 +0.0000000000e+00 +2.9363141646e+01 2.9363141646e+01 0.0000000000e+00 0.0000e+00 1.0000e+00
        1 -1    0    0  501    0 +0.0000000000e+00 -0.0000000000e+00 -7.0796676359e+01 7.0796676359e+01 0.0000000000e+00 0.0000e+00 -1.0000e+00
       23  1    1    2    0    0 +0.0000000000e+00 -0.0000000000e+00 -4.1433534713e+01 1.0015981800e+02 9.1188000000e+01 0.0000e+00 1.0000e+00
<mgrwt>
<rscale>  0 0.91188000E+02</rscale>
<asrwt>0</asrwt>
<pdfrwt beam="2">  1        1 0.10891796E-01 0.91188000E+02</pdfrwt>
<pdfrwt beam="1">  1       -1 0.45174065E-02 0.91188000E+02</pdfrwt>
<totfact> 0.98806232E+04</totfact>
</mgrwt>
</event>
<event>
 3      1 +4.2044000e+04 9.11880000e+01 7.54677100e-03 1.30000000e-01
        1 -1    0    0  501    0 +0.0000000000e+00 +0.0000000000e+00 +6.5762875969e+01 6.5762875969e+01 0.0000000000e+00 0.0000e+00 -1.0000e+00
       -1 -1    0    0    0  501 -0.0000000000e+00 -0.0000000000e+00 -3.1610734862e+01 3.1610734862e+01 0.0000000000e+00 0.0000e+00 1.0000e+00
       23  1    1    2    0    0 +0.0000000000e+00 +0.0000000000e+00 +3.4152141108e+01 9.7373610831e+01 9.1188000000e+01 0.0000e+00 -1.0000e+00
<mgrwt>
<rscale>  0 0.91188000E+02</rscale>
<asrwt>0</asrwt>
<pdfrwt beam="1">  1        1 0.10117366E-01 0.91188000E+02</pdfrwt>
<pdfrwt beam="2">  1       -1 0.48631900E-02 0.91188000E+02</pdfrwt>
<totfact> 0.97691927E+04</totfact>
</mgrwt>
</event>
<event>
 3      1 +4.2044000e+04 9.11880000e+01 7.54677100e-03 1.30000000e-01
       -2 -1    0    0    0  501 -0.0000000000e+00 +0.0000000000e+00 +5.9017186108e-01 5.9017186108e-01 0.0000000000e+00 0.0000e+00 1.0000e+00
        2 -1    0    0  501    0 +0.0000000000e+00 -0.0000000000e+00 -3.5223855509e+03 3.5223855509e+03 0.0000000000e+00 0.0000e+00 -1.0000e+00
       23  1    1    2    0    0 +0.0000000000e+00 -0.0000000000e+00 -3.5217953790e+03 3.5229757227e+03 9.1188000000e+01 0.0000e+00 1.0000e+00
<mgrwt>
<rscale>  0 0.91188000E+02</rscale>
<asrwt>0</asrwt>
<pdfrwt beam="2">  1        2 0.54190630E+00 0.91188000E+02</pdfrwt>
<pdfrwt beam="1">  1       -2 0.90795532E-04 0.91188000E+02</pdfrwt>
<totfact> 0.61508385E+04</totfact>
</mgrwt>
</event>
<event>
 3      1 +4.2044000e+04 9.11880000e+01 7.54677100e-03 1.30000000e-01
       -1 -1    0    0    0  501 -0.0000000000e+00 +0.0000000000e+00 +5.3606668096e+01 5.3606668096e+01 0.0000000000e+00 0.0000e+00 1.0000e+00
        1 -1    0    0  501    0 +0.0000000000e+00 -0.0000000000e+00 -3.8778997275e+01 3.8778997275e+01 0.0000000000e+00 0.0000e+00 -1.0000e+00
       23  1    1    2    0    0 +0.0000000000e+00 -0.0000000000e+00 +1.4827670822e+01 9.2385665371e+01 9.1188000000e+01 0.0000e+00 1.0000e+00
<mgrwt>
<rscale>  0 0.91188000E+02</rscale>
<asrwt>0</asrwt>
<pdfrwt beam="2">  1        1 0.59659996E-02 0.91188000E+02</pdfrwt>
<pdfrwt beam="1">  1       -1 0.82471797E-02 0.91188000E+02</pdfrwt>
<totfact> 0.90205380E+04</totfact>
</mgrwt>
</event>
<event>
 3      1 +4.2044000e+04 9.11880000e+01 7.54677100e-03 1.30000000e-01
       -1 -1    0    0    0  501 -0.0000000000e+00 +0.0000000000e+00 +3.9462262238e+01 3.9462262238e+01 0.0000000000e+00 0.0000e+00 1.0000e+00
        1 -1    0    0  501    0 +0.0000000000e+00 -0.0000000000e+00 -5.2678501386e+01 5.2678501386e+01 0.0000000000e+00 0.0000e+00 -1.0000e+00
       23  1    1    2    0    0 +0.0000000000e+00 -0.0000000000e+00 -1.3216239149e+01 9.2140763624e+01 9.1188000000e+01 0.0000e+00 1.0000e+00
<mgrwt>
<rscale>  0 0.91188000E+02</rscale>
<asrwt>0</asrwt>
<pdfrwt beam="2">  1        1 0.81043848E-02 0.91188000E+02</pdfrwt>
<pdfrwt beam="1">  1       -1 0.60711173E-02 0.91188000E+02</pdfrwt>
<totfact> 0.94468933E+04</totfact>
</mgrwt>
</event>
<event>
 3      1 +4.2044000e+04 9.11880000e+01 7.54677100e-03 1.30000000e-01
       -2 -1    0    0    0  501 -0.0000000000e+00 +0.0000000000e+00 +5.7137734212e+00 5.7137734212e+00 0.0000000000e+00 0.0000e+00 1.0000e+00
        2 -1    0    0  501    0 +0.0000000000e+00 -0.0000000000e+00 -3.6382486367e+02 3.6382486367e+02 0.0000000000e+00 0.0000e+00 -1.0000e+00
       23  1    1    2    0    0 +0.0000000000e+00 -0.0000000000e+00 -3.5811109025e+02 3.6953863709e+02 9.1188000000e+01 0.0000e+00 1.0000e+00
<mgrwt>
<rscale>  0 0.91188000E+02</rscale>
<asrwt>0</asrwt>
<pdfrwt beam="2">  1        2 0.55973066E-01 0.91188000E+02</pdfrwt>
<pdfrwt beam="1">  1       -2 0.87904191E-03 0.91188000E+02</pdfrwt>
<totfact> 0.19284070E+05</totfact>
</mgrwt>
</event>
<event>
 3      1 +4.2044000e+04 9.11880000e+01 7.54677100e-03 1.30000000e-01
        4 -1    0    0  501    0 +0.0000000000e+00 +0.0000000000e+00 +1.9888494945e+03 1.9888494945e+03 0.0000000000e+00 0.0000e+00 -1.0000e+00
       -4 -1    0    0    0  501 -0.0000000000e+00 -0.0000000000e+00 -1.0452338610e+00 1.0452338610e+00 0.0000000000e+00 0.0000e+00 1.0000e+00
       23  1    1    2    0    0 +0.0000000000e+00 +0.0000000000e+00 +1.9878042606e+03 1.9898947284e+03 9.1188000000e+01 0.0000e+00 -1.0000e+00
<mgrwt>
<rscale>  0 0.91188000E+02</rscale>
<asrwt>0</asrwt>
<pdfrwt beam="1">  1        4 0.30597382E+00 0.91188000E+02</pdfrwt>
<pdfrwt beam="2">  1       -4 0.16080680E-03 0.91188000E+02</pdfrwt>
<totfact> 0.23431783E+03</totfact>
</mgrwt>
</event>
<event>
 3      1 +4.2044000e+04 9.11880000e+01 7.54677100e-03 1.30000000e-01
        2 -1    0    0  501    0 +0.0000000000e+00 +0.0000000000e+00 +2.5293251473e+01 2.5293251473e+01 0.0000000000e+00 0.0000e+00 1.0000e+00
       -2 -1    0    0    0  501 -0.0000000000e+00 -0.0000000000e+00 -8.2188438217e+01 8.2188438217e+01 0.0000000000e+00 0.0000e+00 -1.0000e+00
       23  1    1    2    0    0 +0.0000000000e+00 +0.0000000000e+00 -5.6895186744e+01 1.0748168969e+02 9.1188000000e+01 0.0000e+00 1.0000e+00
<mgrwt>
<rscale>  0 0.91188000E+02</rscale>
<asrwt>0</asrwt>
<pdfrwt beam="1">  1        2 0.38912694E-02 0.91188000E+02</pdfrwt>
<pdfrwt beam="2">  1       -2 0.12644375E-01 0.91188000E+02</pdfrwt>
<totfact> 0.84419051E+04</totfact>
</mgrwt>
</event>
<event>
 3      1 +4.2044000e+04 9.11880000e+01 7.54677100e-03 1.30000000e-01
        1 -1    0    0  501    0 +0.0000000000e+00 +0.0000000000e+00 +3.7205266842e+02 3.7205266842e+02 0.0000000000e+00 0.0000e+00 -1.0000e+00
       -1 -1    0    0    0  501 -0.0000000000e+00 -0.0000000000e+00 -5.5874154722e+00 5.5874154722e+00 0.0000000000e+00 0.0000e+00 1.0000e+00
       23  1    1    2    0    0 +0.0000000000e+00 +0.0000000000e+00 +3.6646525295e+02 3.7764008389e+02 9.1188000000e+01 0.0000e+00 -1.0000e+00
<mgrwt>
<rscale>  0 0.91188000E+02</rscale>
<asrwt>0</asrwt>
<pdfrwt beam="1">  1        1 0.57238852E-01 0.91188000E+02</pdfrwt>
<pdfrwt beam="2">  1       -1 0.85960267E-03 0.91188000E+02</pdfrwt>
<totfact> 0.13320878E+05</totfact>
</mgrwt>
</event>
<event>
 3      1 +4.2044000e+04 9.11880000e+01 7.54677100e-03 1.30000000e-01
       -1 -1    0    0    0  501 -0.0000000000e+00 +0.0000000000e+00 +5.5128881187e+01 5.5128881187e+01 0.0000000000e+00 0.0000e+00 1.0000e+00
        1 -1    0    0  501    0 +0.0000000000e+00 -0.0000000000e+00 -3.7708235524e+01 3.7708235524e+01 0.0000000000e+00 0.0000e+00 -1.0000e+00
       23  1    1    2    0    0 +0.0000000000e+00 -0.0000000000e+00 +1.7420645663e+01 9.2837116712e+01 9.1188000000e+01 0.0000e+00 1.0000e+00
<mgrwt>
<rscale>  0 0.91188000E+02</rscale>
<asrwt>0</asrwt>
<pdfrwt beam="2">  1        1 0.58012670E-02 0.91188000E+02</pdfrwt>
<pdfrwt beam="1">  1       -1 0.84813663E-02 0.91188000E+02</pdfrwt>
<totfact> 0.89819903E+04</totfact>
</mgrwt>
</event>
<event>
 3      1 +4.2044000e+04 9.11880000e+01 7.54677100e-03 1.30000000e-01
        1 -1    0    0  501    0 +0.0000000000e+00 +0.0000000000e+00 +1.3646823962e+02 1.3646823962e+02 0.0000000000e+00 0.0000e+00 -1.0000e+00
       -1 -1    0    0    0  501 -0.0000000000e+00 -0.0000000000e+00 -1.5232942418e+01 1.5232942418e+01 0.0000000000e+00 0.0000e+00 1.0000e+00
       23  1    1    2    0    0 +0.0000000000e+00 +0.0000000000e+00 +1.2123529720e+02 1.5170118204e+02 9.1188000000e+01 0.0000e+00 -1.0000e+00
<mgrwt>
<rscale>  0 0.91188000E+02</rscale>
<asrwt>0</asrwt>
<pdfrwt beam="1">  1        1 0.20995113E-01 0.91188000E+02</pdfrwt>
<pdfrwt beam="2">  1       -1 0.23435297E-02 0.91188000E+02</pdfrwt>
<totfact> 0.11018404E+05</totfact>
</mgrwt>
</event>
<event>
 3      1 +4.2044000e+04 9.11880000e+01 7.54677100e-03 1.30000000e-01
        1 -1    0    0  501    0 +0.0000000000e+00 +0.0000000000e+00 +3.7042555811e+03 3.7042555811e+03 0.0000000000e+00 0.0000e+00 -1.0000e+00
       -1 -1    0    0    0  501 -0.0000000000e+00 -0.0000000000e+00 -5.6119584367e-01 5.6119584367e-01 0.0000000000e+00 0.0000e+00 1.0000e+00
       23  1    1    2    0    0 +0.0000000000e+00 +0.0000000000e+00 +3.7036943852e+03 3.7048167769e+03 9.1188000000e+01 0.0000e+00 -1.0000e+00
<mgrwt>
<rscale>  0 0.91188000E+02</rscale>
<asrwt>0</asrwt>
<pdfrwt beam="1">  1        1 0.56986590E+00 0.91188000E+02</pdfrwt>
<pdfrwt beam="2">  1       -1 0.86340788E-04 0.91188000E+02</pdfrwt>
<totfact> 0.13115031E+04</totfact>
</mgrwt>
</event>
<event>
 3      1 +4.2044000e+04 9.11880000e+01 7.54677100e-03 1.30000000e-01
       -2 -1    0    0    0  501 -0.0000000000e+00 +0.0000000000e+00 +1.1179308317e+01 1.1179308317e+01 0.0000000000e+00 0.0000e+00 1.0000e+00
        2 -1    0    0  501    0 +0.0000000000e+00 -0.0000000000e+00 -1.8595182968e+02 1.8595182968e+02 0.0000000000e+00 0.0000e+00 -1.0000e+00
       23  1    1    2    0    0 +0.0000000000e+00 -0.0000000000e+00 -1.7477252136e+02 1.9713113799e+02 9.1188000000e+01 0.0000e+00 1.0000e+00
<mgrwt>
<rscale>  0 0.91188000E+02</rscale>
<asrwt>0</asrwt>
<pdfrwt beam="2">  1        2 0.28607973E-01 0.91188000E+02</pdfrwt>
<pdfrwt beam="1">  1       -2 0.17198936E-02 0.91188000E+02</pdfrwt>
<totfact> 0.15063260E+05</totfact>
</mgrwt>
</event>
<event>
 3      1 +4.2044000e+04 9.11880000e+01 7.54677100e-03 1.30000000e-01
       -1 -1    0    0    0  501 -0.0000000000e+00 +0.0000000000e+00 +1.0300058084e+02 1.0300058084e+02 0.0000000000e+00 0.0000e+00 1.0000e+00
        1 -1    0    0  501    0 +0.0000000000e+00 -0.0000000000e+00 -2.0182535079e+01 2.0182535079e+01 0.0000000000e+00 0.0000e+00 -1.0000e+00
       23  1    1    2    0    0 +0.0000000000e+00 -0.0000000000e+00 +8.2818045766e+01 1.2318311592e+02 9.1188000000e+01 0.0000e+00 1.0000e+00
<mgrwt>
<rscale>  0 0.91188000E+02</rscale>
<asrwt>0</asrwt>
<pdfrwt beam="2">  1        1 0.31050055E-02 0.91188000E+02</pdfrwt>
<pdfrwt beam="1">  1       -1 0.15846243E-01 0.91188000E+02</pdfrwt>
<totfact> 0.80895713E+04</totfact>
</mgrwt>
</event>
<event>
 3      1 +4.2044000e+04 9.11880000e+01 7.54677100e-03 1.30000000e-01
       -1 -1    0    0    0  501 -0.0000000000e+00 +0.0000000000e+00 +5.0654102875e+01 5.0654102875e+01 0.0000000000e+00 0.0000e+00 1.0000e+00
        1 -1    0    0  501    0 +0.0000000000e+00 -0.0000000000e+00 -4.1039377228e+01 4.1039377228e+01 0.0000000000e+00 0.0000e+00 -1.0000e+00
       23  1    1    2    0    0 +0.0000000000e+00 -0.0000000000e+00 +9.6147256472e+00 9.1693480102e+01 9.1188000000e+01 0.0000e+00 1.0000e+00
<mgrwt>
<rscale>  0 0.91188000E+02</rscale>
<asrwt>0</asrwt>
<pdfrwt beam="2">  1        1 0.63137503E-02 0.91188000E+02</pdfrwt>
<pdfrwt beam="1">  1       -1 0.77929389E-02 0.91188000E+02</pdfrwt>
<totfact> 0.90985871E+04</totfact>
</mgrwt>
</event>
<event>
 3      1 +4.2044000e+04 9.11880000e+01 7.54677100e-03 1.30000000e-01
        2 -1    0    0  501    0 +0.0000000000e+00 +0.0000000000e+00 +1.7555156670e+02 1.7555156670e+02 0.0000000000e+00 0.0000e+00 -1.0000e+00
       -2 -1    0    0    0  501 -0.0000000000e+00 -0.0000000000e+00 -1.1841607996e+01 1.1841607996e+01 0.0000000000e+00 0.0000e+00 1.0000e+00
       23  1    1    2    0    0 +0.0000000000e+00 +0.0000000000e+00 +1.6370995871e+02 1.8739317470e+02 9.1188000000e+01 0.0000e+00 -1.0000e+00
<mgrwt>
<rscale>  0 0.91188000E+02</rscale>
<asrwt>0</asrwt>
<pdfrwt beam="1">  1        2 0.27007931E-01 0.91188000E+02</pdfrwt>
<pdfrwt beam="2">  1       -2 0.18217860E-02 0.91188000E+02</pdfrwt>
<totfact> 0.14758459E+05</totfact>
</mgrwt>
</event>
<event>
 3      1 +4.2044000e+04 9.11880000e+01 7.54677100e-03 1.30000000e-01
       -2 -1    0    0    0  501 -0.0000000000e+00 +0.0000000000e+00 +1.4137089506e+01 1.4137089506e+01 0.0000000000e+00 0.0000e+00 1.0000e+00
        2 -1    0    0  501    0 +0.0000000000e+00 -0.0000000000e+00 -1.4704673371e+02 1.4704673371e+02 0.0000000000e+00 0.0000e+00 -1.0000e+00
       23  1    1    2    0    0 +0.0000000000e+00 -0.0000000000e+00 -1.3290964421e+02 1.6118382322e+02 9.1188000000e+01 0.0000e+00 1.0000e+00
<mgrwt>
<rscale>  0 0.91188000E+02</rscale>
<asrwt>0</asrwt>
<pdfrwt beam="2">  1        2 0.22622574E-01 0.91188000E+02</pdfrwt>
<pdfrwt beam="1">  1       -2 0.21749369E-02 0.91188000E+02</pdfrwt>
<totfact> 0.13882322E+05</totfact>
</mgrwt>
</event>
<event>
 3      1 +4.2044000e+04 9.11880000e+01 7.54677100e-03 1.30000000e-01
       -4 -1    0    0    0  501 -0.0000000000e+00 +0.0000000000e+00 +1.0145370284e+01 1.0145370284e+01 0.0000000000e+00 0.0000e+00 1.0000e+00
        4 -1    0    0  501    0 +0.0000000000e+00 -0.0000000000e+00 -2.0490260856e+02 2.0490260856e+02 0.0000000000e+00 0.0000e+00 -1.0000e+00
       23  1    1    2    0    0 +0.0000000000e+00 -0.0000000000e+00 -1.9475723827e+02 2.1504797884e+02 9.1188000000e+01 0.0000e+00 1.0000e+00
<mgrwt>
<rscale>  0 0.91188000E+02</rscale>
<asrwt>0</asrwt>
<pdfrwt beam="2">  1        4 0.31523479E-01 0.91188000E+02</pdfrwt>
<pdfrwt beam="1">  1       -4 0.15608262E-02 0.91188000E+02</pdfrwt>
<totfact> 0.20766845E+04</totfact>
</mgrwt>
</event>
<event>
 3      1 +4.2044000e+04 9.11880000e+01 7.54677100e-03 1.30000000e-01
       -1 -1    0    0    0  501 -0.0000000000e+00 +0.0000000000e+00 +2.5147704019e+00 2.5147704019e+00 0.0000000000e+00 0.0000e+00 1.0000e+00
        1 -1    0    0  501    0 +0.0000000000e+00 -0.0000000000e+00 -8.2664120526e+02 8.2664120526e+02 0.0000000000e+00 0.0000e+00 -1.0000e+00
       23  1    1    2    0    0 +0.0000000000e+00 -0.0000000000e+00 -8.2412643486e+02 8.2915597567e+02 9.1188000000e+01 0.0000e+00 1.0000e+00
<mgrwt>
<rscale>  0 0.91188000E+02</rscale>
<asrwt>0</asrwt>
<pdfrwt beam="2">  1        1 0.12717555E+00 0.91188000E+02</pdfrwt>
<pdfrwt beam="1">  1       -1 0.38688781E-03 0.91188000E+02</pdfrwt>
<totfact> 0.14079945E+05</totfact>
</mgrwt>
</event>
<event>
 3      1 +4.2044000e+04 9.11880000e+01 7.54677100e-03 1.30000000e-01
        2 -1    0    0  501    0 +0.0000000000e+00 +0.0000000000e+00 +2.1826362454e+02 2.1826362454e+02 0.0000000000e+00 0.0000e+00 -1.0000e+00
       -2 -1    0    0    0  501 -0.0000000000e+00 -0.0000000000e+00 -9.5243210609e+00 9.5243210609e+00 0.0000000000e+00 0.0000e+00 1.0000e+00
       23  1    1    2    0    0 +0.0000000000e+00 +0.0000000000e+00 +2.0873930348e+02 2.2778794560e+02 9.1188000000e+01 0.0000e+00 -1.0000e+00
<mgrwt>
<rscale>  0 0.91188000E+02</rscale>
<asrwt>0</asrwt>
<pdfrwt beam="1">  1        2 0.33579015E-01 0.91188000E+02</pdfrwt>
<pdfrwt beam="2">  1       -2 0.14652803E-02 0.91188000E+02</pdfrwt>
<totfact> 0.15962391E+05</totfact>
</mgrwt>
</event>
<event>
 3      1 +4.2044000e+04 9.11880000e+01 7.54677100e-03 1.30000000e-01
       -1 -1    0    0    0  501 -0.0000000000e+00 +0.0000000000e+00 +9.4218494981e+02 9.4218494981e+02 0.0000000000e+00 0.0000e+00 1.0000e+00
        1 -1    0    0  501    0 +0.0000000000e+00 -0.0000000000e+00 -2.2063744878e+00 2.2063744878e+00 0.0000000000e+00 0.0000e+00 -1.0000e+00
       23  1    1    2    0    0 +0.0000000000e+00 -0.0000000000e+00 +9.3997857532e+02 9.4439132430e+02 9.1188000000e+01 0.0000e+00 1.0000e+00
<mgrwt>
<rscale>  0 0.91188000E+02</rscale>
<asrwt>0</asrwt>
<pdfrwt beam="2">  1        1 0.33944298E-03 0.91188000E+02</pdfrwt>
<pdfrwt beam="1">  1       -1 0.14495121E+00 0.91188000E+02</pdfrwt>
<totfact> 0.27493017E+04</totfact>
</mgrwt>
</event>
<event>
 3      1 +4.2044000e+04 9.11880000e+01 7.54677100e-03 1.30000000e-01
        1 -1    0    0  501    0 +0.0000000000e+00 +0.0000000000e+00 +3.3500982346e+02 3.3500982346e+02 0.0000000000e+00 0.0000e+00 -1.0000e+00
       -1 -1    0    0    0  501 -0.0000000000e+00 -0.0000000000e+00 -6.2052294902e+00 6.2052294902e+00 0.0000000000e+00 0.0000e+00 1.0000e+00
       23  1    1    2    0    0 +0.0000000000e+00 +0.0000000000e+00 +3.2880459397e+02 3.4121505295e+02 9.1188000000e+01 0.0000e+00 -1.0000e+00
<mgrwt>
<rscale>  0 0.91188000E+02</rscale>
<asrwt>0</asrwt>
<pdfrwt beam="1">  1        1 0.51539959E-01 0.91188000E+02</pdfrwt>
<pdfrwt beam="2">  1       -1 0.95465095E-03 0.91188000E+02</pdfrwt>
<totfact> 0.13075137E+05</totfact>
</mgrwt>
</event>
<event>
 3      1 +4.2044000e+04 9.11880000e+01 7.54677100e-03 1.30000000e-01
        2 -1    0    0  501    0 +0.0000000000e+00 +0.0000000000e+00 +7.0008601595e+00 7.0008601595e+00 0.0000000000e+00 0.0000e+00 -1.0000e+00
       -2 -1    0    0    0  501 -0.0000000000e+00 -0.0000000000e+00 -2.9693677472e+02 2.9693677472e+02 0.0000000000e+00 0.0000e+00 1.0000e+00
       23  1    1    2    0    0 +0.0000000000e+00 +0.0000000000e+00 -2.8993591456e+02 3.0393763488e+02 9.1188000000e+01 0.0000e+00 -1.0000e+00
<mgrwt>
<rscale>  0 0.91188000E+02</rscale>
<asrwt>0</asrwt>
<pdfrwt beam="1">  1        2 0.10770558E-02 0.91188000E+02</pdfrwt>
<pdfrwt beam="2">  1       -2 0.45682565E-01 0.91188000E+02</pdfrwt>
<totfact> 0.51279342E+04</totfact>
</mgrwt>
</event>
<event>
 3      1 +4.2044000e+04 9.11880000e+01 7.54677100e-03 1.30000000e-01
        1 -1    0    0  501    0 +0.0000000000e+00 +0.0000000000e+00 +5.5401936223e+00 5.5401936223e+00 0.0000000000e+00 0.0000e+00 -1.0000e+00
       -1 -1    0    0    0  501 -0.0000000000e+00 -0.0000000000e+00 -3.7522385998e+02 3.7522385998e+02 0.0000000000e+00 0.0000e+00 1.0000e+00
       23  1    1    2    0    0 +0.0000000000e+00 +0.0000000000e+00 -3.6968366636e+02 3.8076405361e+02 9.1188000000e+01 0.0000e+00 -1.0000e+00
<mgrwt>
<rscale>  0 0.91188000E+02</rscale>
<asrwt>0</asrwt>
<pdfrwt beam="1">  1        1 0.85233756E-03 0.91188000E+02</pdfrwt>
<pdfrwt beam="2">  1       -1 0.57726743E-01 0.91188000E+02</pdfrwt>
<totfact> 0.54972704E+04</totfact>
</mgrwt>
</event>
<event>
 3      1 +4.2044000e+04 9.11880000e+01 7.54677100e-03 1.30000000e-01
       -2 -1    0    0    0  501 -0.0000000000e+00 +0.0000000000e+00 +6.7166305630e+01 6.7166305630e+01 0.0000000000e+00 0.0000e+00 1.0000e+00
        2 -1    0    0  501    0 +0.0000000000e+00 -0.0000000000e+00 -3.0950233402e+01 3.0950233402e+01 0.0000000000e+00 0.0000e+00 -1.0000e+00
       23  1    1    2    0    0 +0.0000000000e+00 -0.0000000000e+00 +3.6216072228e+01 9.8116539032e+01 9.1188000000e+01 0.0000e+00 1.0000e+00
<mgrwt>
<rscale>  0 0.91188000E+02</rscale>
<asrwt>0</asrwt>
<pdfrwt beam="2">  1        2 0.47615744E-02 0.91188000E+02</pdfrwt>
<pdfrwt beam="1">  1       -2 0.10333278E-01 0.91188000E+02</pdfrwt>
<totfact> 0.89171262E+04</totfact>
</mgrwt>
</event>
<event>
 3      1 +4.2044000e+04 9.11880000e+01 7.54677100e-03 1.30000000e-01
        2 -1    0    0  501    0 +0.0000000000e+00 +0.0000000000e+00 +1.1272056211e+03 1.1272056211e+03 0.0000000000e+00 0.0000e+00 -1.0000e+00
       -2 -1    0    0    0  501 -0.0000000000e+00 -0.0000000000e+00 -1.8442179466e+00 1.8442179466e+00 0.0000000000e+00 0.0000e+00 1.0000e+00
       23  1    1    2    0    0 +0.0000000000e+00 +0.0000000000e+00 +1.1253614032e+03 1.1290498391e+03 9.1188000000e+01 0.0000e+00 -1.0000e+00
<mgrwt>
<rscale>  0 0.91188000E+02</rscale>
<asrwt>0</asrwt>
<pdfrwt beam="1">  1        2 0.17341570E+00 0.91188000E+02</pdfrwt>
<pdfrwt beam="2">  1       -2 0.28372674E-03 0.91188000E+02</pdfrwt>
<totfact> 0.24985731E+05</totfact>
</mgrwt>
</event>
<event>
 3      1 +4.2044000e+04 9.11880000e+01 7.54677100e-03 1.30000000e-01
       -1 -1    0    0    0  501 -0.0000000000e+00 +0.0000000000e+00 +4.0459635745e+00 4.0459635745e+00 0.0000000000e+00 0.0000e+00 1.0000e+00
        1 -1    0    0  501    0 +0.0000000000e+00 -0.0000000000e+00 -5.1379919709e+02 5.1379919709e+02 0.0000000000e+00 0.0000e+00 -1.0000e+00
       23  1    1    2    0    0 +0.0000000000e+00 -0.0000000000e+00 -5.0975323351e+02 5.1784516066e+02 9.1188000000e+01 0.0000e+00 1.0000e+00
<mgrwt>
<rscale>  0 0.91188000E+02</rscale>
<asrwt>0</asrwt>
<pdfrwt beam="2">  1        1 0.79046082E-01 0.91188000E+02</pdfrwt>
<pdfrwt beam="1">  1       -1 0.62245553E-03 0.91188000E+02</pdfrwt>
<totfact> 0.13965410E+05</totfact>
</mgrwt>
</event>
<event>
 3      1 +4.2044000e+04 9.11880000e+01 7.54677100e-03 1.30000000e-01
        1 -1    0    0  501    0 +0.0000000000e+00 +0.0000000000e+00 +4.4905909103e+02 4.4905909103e+02 0.0000000000e+00 0.0000e+00 -1.0000e+00
       -1 -1    0    0    0  501 -0.0000000000e+00 -0.0000000000e+00 -4.6292634478e+00 4.6292634478e+00 0.0000000000e+00 0.0000e+00 1.0000e+00
       23  1    1    2    0    0 +0.0000000000e+00 +0.0000000000e+00 +4.4442982758e+02 4.5368835447e+02 9.1188000000e+01 0.0000e+00 -1.0000e+00
<mgrwt>
<rscale>  0 0.91188000E+02</rscale>
<asrwt>0</asrwt>
<pdfrwt beam="1">  1        1 0.69085980E-01 0.91188000E+02</pdfrwt>
<pdfrwt beam="2">  1       -1 0.71219473E-03 0.91188000E+02</pdfrwt>
<totfact> 0.13727173E+05</totfact>
</mgrwt>
</event>
<event>
 3      1 +4.2044000e+04 9.11880000e+01 7.54677100e-03 1.30000000e-01
        2 -1    0    0  501    0 +0.0000000000e+00 +0.0000000000e+00 +2.7331213178e+03 2.7331213178e+03 0.0000000000e+00 0.0000e+00 -1.0000e+00
       -2 -1    0    0    0  501 -0.0000000000e+00 -0.0000000000e+00 -7.6060027868e-01 7.6060027868e-01 0.0000000000e+00 0.0000e+00 1.0000e+00
       23  1    1    2    0    0 +0.0000000000e+00 +0.0000000000e+00 +2.7323607175e+03 2.7338819181e+03 9.1188000000e+01 0.0000e+00 -1.0000e+00
<mgrwt>
<rscale>  0 0.91188000E+02</rscale>
<asrwt>0</asrwt>
<pdfrwt beam="1">  1        2 0.42047234E+00 0.91188000E+02</pdfrwt>
<pdfrwt beam="2">  1       -2 0.11701762E-03 0.91188000E+02</pdfrwt>
<totfact> 0.12609507E+05</totfact>
</mgrwt>
</event>
<event>
 3      1 +4.2044000e+04 9.11880000e+01 7.54677100e-03 1.30000000e-01
       -2 -1    0    0    0  501 -0.0000000000e+00 +0.0000000000e+00 +1.5591362043e+00 1.5591362043e+00 0.0000000000e+00 0.0000e+00 1.0000e+00
        2 -1    0    0  501    0 +0.0000000000e+00 -0.0000000000e+00 -1.3333106051e+03 1.3333106051e+03 0.0000000000e+00 0.0000e+00 -1.0000e+00
       23  1    1    2    0    0 +0.0000000000e+00 -0.0000000000e+00 -1.3317514689e+03 1.3348697413e+03 9.1188000000e+01 0.0000e+00 1.0000e+00
<mgrwt>
<rscale>  0 0.91188000E+02</rscale>
<asrwt>0</asrwt>
<pdfrwt beam="2">  1        2 0.20512480E+00 0.91188000E+02</pdfrwt>
<pdfrwt beam="1">  1       -2 0.23986700E-03 0.91188000E+02</pdfrwt>
<totfact> 0.24432092E+05</totfact>
</mgrwt>
</event>
<event>
 3      1 +4.2044000e+04 9.11880000e+01 7.54677100e-03 1.30000000e-01
        2 -1    0    0  501    0 +0.0000000000e+00 +0.0000000000e+00 +6.0892151182e+02 6.0892151182e+02 0.0000000000e+00 0.0000e+00 -1.0000e+00
       -2 -1    0    0    0  501 -0.0000000000e+00 -0.0000000000e+00 -3.4139257616e+00 3.4139257616e+00 0.0000000000e+00 0.0000e+00 1.0000e+00
       23  1    1    2    0    0 +0.0000000000e+00 +0.0000000000e+00 +6.0550758606e+02 6.1233543758e+02 9.1188000000e+01 0.0000e+00 -1.0000e+00
<mgrwt>
<rscale>  0 0.91188000E+02</rscale>
<asrwt>0</asrwt>
<pdfrwt beam="1">  1        2 0.93680146E-01 0.91188000E+02</pdfrwt>
<pdfrwt beam="2">  1       -2 0.52521983E-03 0.91188000E+02</pdfrwt>
<totfact> 0.22872371E+05</totfact>
</mgrwt>
</event>
<event>
 3      1 +4.2044000e+04 9.11880000e+01 7.54677100e-03 1.30000000e-01
        3 -1    0    0  501    0 +0.0000000000e+00 +0.0000000000e+00 +4.4066492323e+01 4.4066492323e+01 0.0000000000e+00 0.0000e+00 -1.0000e+00
       -3 -1    0    0    0  501 -0.0000000000e+00 -0.0000000000e+00 -4.7174456745e+01 4.7174456745e+01 0.0000000000e+00 0.0000e+00 1.0000e+00
       23  1    1    2    0    0 +0.0000000000e+00 +0.0000000000e+00 -3.1079644217e+00 9.1240949068e+01 9.1188000000e+01 0.0000e+00 -1.0000e+00
<mgrwt>
<rscale>  0 0.91188000E+02</rscale>
<asrwt>0</asrwt>
<pdfrwt beam="1">  1        3 0.67794604E-02 0.91188000E+02</pdfrwt>
<pdfrwt beam="2">  1       -3 0.72576087E-02 0.91188000E+02</pdfrwt>
<totfact> 0.35321923E+04</totfact>
</mgrwt>
</event>
<event>
 3      1 +4.2044000e+04 9.11880000e+01 7.54677100e-03 1.30000000e-01
        1 -1    0    0  501    0 +0.0000000000e+00 +0.0000000000e+00 +7.2985286722e+01 7.2985286722e+01 0.0000000000e+00 0.0000e+00 -1.0000e+00
       -1 -1    0    0    0  501 -0.0000000000e+00 -0.0000000000e+00 -2.8482628888e+01 2.8482628888e+01 0.0000000000e+00 0.0000e+00 1.0000e+00
       23  1    1    2    0    0 +0.0000000000e+00 +0.0000000000e+00 +4.4502657834e+01 1.0146791561e+02 9.1188000000e+01 0.0000e+00 -1.0000e+00
<mgrwt>
<rscale>  0 0.91188000E+02</rscale>
<asrwt>0</asrwt>
<pdfrwt beam="1">  1        1 0.11228506E-01 0.91188000E+02</pdfrwt>
<pdfrwt beam="2">  1       -1 0.43819429E-02 0.91188000E+02</pdfrwt>
<totfact> 0.99273670E+04</totfact>
</mgrwt>
</event>
<event>
 3      1 +4.2044000e+04 9.11880000e+01 7.54677100e-03 1.30000000e-01
        1 -1    0    0  501    0 +0.0000000000e+00 +0.0000000000e+00 +1.2731050734e+01 1.2731050734e+01 0.0000000000e+00 0.0000e+00 -1.0000e+00
       -1 -1    0    0    0  501 -0.0000000000e+00 -0.0000000000e+00 -1.6328682364e+02 1.6328682364e+02 0.0000000000e+00 0.0000e+00 1.0000e+00
       23  1    1    2    0    0 +0.0000000000e+00 +0.0000000000e+00 -1.5055577291e+02 1.7601787438e+02 9.1188000000e+01 0.0000e+00 -1.0000e+00
<mgrwt>
<rscale>  0 0.91188000E+02</rscale>
<asrwt>0</asrwt>
<pdfrwt beam="1">  1        1 0.19586232E-02 0.91188000E+02</pdfrwt>
<pdfrwt beam="2">  1       -1 0.25121049E-01 0.91188000E+02</pdfrwt>
<totfact> 0.73252467E+04</totfact>
</mgrwt>
</event>
<event>
 3      1 +4.2044000e+04 9.11880000e+01 7.54677100e-03 1.30000000e-01
        3 -1    0    0  501    0 +0.0000000000e+00 +0.0000000000e+00 +1.0057401024e+01 1.0057401024e+01 0.0000000000e+00 0.0000e+00 -1.0000e+00
       -3 -1    0    0    0  501 -0.0000000000e+00 -0.0000000000e+00 -2.0669483408e+02 2.0669483408e+02 0.0000000000e+00 0.0000e+00 1.0000e+00
       23  1    1    2    0    0 +0.0000000000e+00 +0.0000000000e+00 -1.9663743306e+02 2.1675223511e+02 9.1188000000e+01 0.0000e+00 -1.0000e+00
<mgrwt>
<rscale>  0 0.91188000E+02</rscale>
<asrwt>0</asrwt>
<pdfrwt beam="1">  1        3 0.15472924E-02 0.91188000E+02</pdfrwt>
<pdfrwt beam="2">  1       -3 0.31799207E-01 0.91188000E+02</pdfrwt>
<totfact> 0.27643714E+04</totfact>
</mgrwt>
</event>
<event>
 3      1 +4.2044000e+04 9.11880000e+01 7.54677100e-03 1.30000000e-01
        1 -1    0    0  501    0 +0.0000000000e+00 +0.0000000000e+00 +1.3393319374e+00 1.3393319374e+00 0.0000000000e+00 0.0000e+00 -1.0000e+00
       -1 -1    0    0    0  501 -0.0000000000e+00 -0.0000000000e+00 -1.5521266819e+03 1.5521266819e+03 0.0000000000e+00 0.0000e+00 1.0000e+00
       23  1    1    2    0    0 +0.0000000000e+00 +0.0000000000e+00 -1.5507873499e+03 1.5534660138e+03 9.1188000000e+01 0.0000e+00 -1.0000e+00
<mgrwt>
<rscale>  0 0.91188000E+02</rscale>
<asrwt>0</asrwt>
<pdfrwt beam="1">  1        1 0.20605145E-03 0.91188000E+02</pdfrwt>
<pdfrwt beam="2">  1       -1 0.23878828E+00 0.91188000E+02</pdfrwt>
<totfact> 0.12891009E+04</totfact>
</mgrwt>
</event>
<event>
 3      1 +4.2044000e+04 9.11880000e+01 7.54677100e-03 1.30000000e-01
        1 -1    0    0  501    0 +0.0000000000e+00 +0.0000000000e+00 +3.9205321151e+00 3.9205321151e+00 0.0000000000e+00 0.0000e+00 -1.0000e+00
       -1 -1    0    0    0  501 -0.0000000000e+00 -0.0000000000e+00 -5.3023742058e+02 5.3023742058e+02 0.0000000000e+00 0.0000e+00 1.0000e+00
       23  1    1    2    0    0 +0.0000000000e+00 +0.0000000000e+00 -5.2631688846e+02 5.3415795269e+02 9.1188000000e+01 0.0000e+00 -1.0000e+00
<mgrwt>
<rscale>  0 0.91188000E+02</rscale>
<asrwt>0</asrwt>
<pdfrwt beam="1">  1        1 0.60315876E-03 0.91188000E+02</pdfrwt>
<pdfrwt beam="2">  1       -1 0.81574991E-01 0.91188000E+02</pdfrwt>
<totfact> 0.45309388E+04</totfact>
</mgrwt>
</event>
<event>
 3      1 +4.2044000e+04 9.11880000e+01 7.54677100e-03 1.30000000e-01
        1 -1    0    0  501    0 +0.0000000000e+00 +0.0000000000e+00 +9.0721170734e+01 9.0721170734e+01 0.0000000000e+00 0.0000e+00 -1.0000e+00
       -1 -1    0    0    0  501 -0.0000000000e+00 -0.0000000000e+00 -2.2914307864e+01 2.2914307864e+01 0.0000000000e+00 0.0000e+00 1.0000e+00
       23  1    1    2    0    0 +0.0000000000e+00 +0.0000000000e+00 +6.7806862870e+01 1.1363547860e+02 9.1188000000e+01 0.0000e+00 -1.0000e+00
<mgrwt>
<rscale>  0 0.91188000E+02</rscale>
<asrwt>0</asrwt>
<pdfrwt beam="1">  1        1 0.13957103E-01 0.91188000E+02</pdfrwt>
<pdfrwt beam="2">  1       -1 0.35252782E-02 0.91188000E+02</pdfrwt>
<totfact> 0.10275904E+05</totfact>
</mgrwt>
</event>
<event>
 3      1 +4.2044000e+04 9.11880000e+01 7.54677100e-03 1.30000000e-01
       -3 -1    0    0    0  501 -0.0000000000e+00 +0.0000000000e+00 +3.4995983085e+01 3.4995983085e+01 0.0000000000e+00 0.0000e+00 1.0000e+00
        3 -1    0    0  501    0 +0.0000000000e+00 -0.0000000000e+00 -5.9401469905e+01 5.9401469905e+01 0.0000000000e+00 0.0000e+00 -1.0000e+00
       23  1    1    2    0    0 +0.0000000000e+00 -0.0000000000e+00 -2.4405486820e+01 9.4397452990e+01 9.1188000000e+01 0.0000e+00 1.0000e+00
<mgrwt>
<rscale>  0 0.91188000E+02</rscale>
<asrwt>0</asrwt>
<pdfrwt beam="2">  1        3 0.91386877E-02 0.91188000E+02</pdfrwt>
<pdfrwt beam="1">  1       -3 0.53839974E-02 0.91188000E+02</pdfrwt>
<totfact> 0.35080610E+04</totfact>
</mgrwt>
</event>
<event>
 3      1 +4.2044000e+04 9.11880000e+01 7.54677100e-03 1.30000000e-01
       -1 -1    0    0    0  501 -0.0000000000e+00 +0.0000000000e+00 +1.0408413683e+01 1.0408413683e+01 0.0000000000e+00 0.0000e+00 1.0000e+00
        1 -1    0    0  501    0 +0.0000000000e+00 -0.0000000000e+00 -1.9972427109e+02 1.9972427109e+02 0.0000000000e+00 0.0000e+00 -1.0000e+00
       23  1    1    2    0    0 +0.0000000000e+00 -0.0000000000e+00 -1.8931585740e+02 2.1013268477e+02 9.1188000000e+01 0.0000e+00 1.0000e+00
<mgrwt>
<rscale>  0 0.91188000E+02</rscale>
<asrwt>0</asrwt>
<pdfrwt beam="2">  1        1 0.30726812E-01 0.91188000E+02</pdfrwt>
<pdfrwt beam="1">  1       -1 0.16012943E-02 0.91188000E+02</pdfrwt>
<totfact> 0.11833547E+05</totfact>
</mgrwt>
</event>
<event>
 3      1 +4.2044000e+04 9.11880000e+01 7.54677100e-03 1.30000000e-01
       -2 -1    0    0    0  501 -0.0000000000e+00 +0.0000000000e+00 +3.2675226329e+00 3.2675226329e+00 0.0000000000e+00 0.0000e+00 1.0000e+00
        2 -1    0    0  501    0 +0.0000000000e+00 -0.0000000000e+00 -6.3620457135e+02 6.3620457135e+02 0.0000000000e+00 0.0000e+00 -1.0000e+00
       23  1    1    2    0    0 +0.0000000000e+00 -0.0000000000e+00 -6.3293704871e+02 6.3947209398e+02 9.1188000000e+01 0.0000e+00 1.0000e+00
<mgrwt>
<rscale>  0 0.91188000E+02</rscale>
<asrwt>0</asrwt>
<pdfrwt beam="2">  1        2 0.97877609E-01 0.91188000E+02</pdfrwt>
<pdfrwt beam="1">  1       -2 0.50269588E-03 0.91188000E+02</pdfrwt>
<totfact> 0.23147301E+05</totfact>
</mgrwt>
</event>
<event>
 3      1 +4.2044000e+04 9.11880000e+01 7.54677100e-03 1.30000000e-01
        2 -1    0    0  501    0 +0.0000000000e+00 +0.0000000000e+00 +8.4431678868e+01 8.4431678868e+01 0.0000000000e+00 0.0000e+00 1.0000e+00
       -2 -1    0    0    0  501 -0.0000000000e+00 -0.0000000000e+00 -2.4621242452e+01 2.4621242452e+01 0.0000000000e+00 0.0000e+00 -1.0000e+00
       23  1    1    2    0    0 +0.0000000000e+00 +0.0000000000e+00 +5.9810436417e+01 1.0905292132e+02 9.1188000000e+01 0.0000e+00 1.0000e+00
<mgrwt>
<rscale>  0 0.91188000E+02</rscale>
<asrwt>0</asrwt>
<pdfrwt beam="1">  1        2 0.12989489E-01 0.91188000E+02</pdfrwt>
<pdfrwt beam="2">  1       -2 0.37878835E-02 0.91188000E+02</pdfrwt>
<totfact> 0.11661429E+05</totfact>
</mgrwt>
</event>
<event>
 3      1 +4.2044000e+04 9.11880000e+01 7.54677100e-03 1.30000000e-01
        1 -1    0    0  501    0 +0.0000000000e+00 +0.0000000000e+00 +3.4725991234e+02 3.4725991234e+02 0.0000000000e+00 0.0000e+00 -1.0000e+00
       -1 -1    0    0    0  501 -0.0000000000e+00 -0.0000000000e+00 -5.9863311661e+00 5.9863311661e+00 0.0000000000e+00 0.0000e+00 1.0000e+00
       23  1    1    2    0    0 +0.0000000000e+00 +0.0000000000e+00 +3.4127358118e+02 3.5324624351e+02 9.1188000000e+01 0.0000e+00 -1.0000e+00
<mgrwt>
<rscale>  0 0.91188000E+02</rscale>
<asrwt>0</asrwt>
<pdfrwt beam="1">  1        1 0.53424586E-01 0.91188000E+02</pdfrwt>
<pdfrwt beam="2">  1       -1 0.92097429E-03 0.91188000E+02</pdfrwt>
<totfact> 0.13160432E+05</totfact>
</mgrwt>
</event>
<event>
 3      1 +4.2044000e+04 9.11880000e+01 7.54677100e-03 1.30000000e-01
       -1 -1    0    0    0  501 -0.0000000000e+00 +0.0000000000e+00 +1.6678231825e+03 1.6678231825e+03 0.0000000000e+00 0.0000e+00 1.0000e+00
        1 -1    0    0  501    0 +0.0000000000e+00 -0.0000000000e+00 -1.2464227970e+00 1.2464227970e+00 0.0000000000e+00 0.0000e+00 -1.0000e+00
       23  1    1    2    0    0 +0.0000000000e+00 -0.0000000000e+00 +1.6665767597e+03 1.6690696053e+03 9.1188000000e+01 0.0000e+00 1.0000e+00
<mgrwt>
<rscale>  0 0.91188000E+02</rscale>
<asrwt>0</asrwt>
<pdfrwt beam="2">  1        1 0.19175869E-03 0.91188000E+02</pdfrwt>
<pdfrwt beam="1">  1       -1 0.25658640E+00 0.91188000E+02</pdfrwt>
<totfact> 0.11069328E+04</totfact>
</mgrwt>
</event>
<event>
 3      1 +4.2044000e+04 9.11880000e+01 7.54677100e-03 1.30000000e-01
       -1 -1    0    0    0  501 -0.0000000000e+00 +0.0000000000e+00 +4.2355430496e+01 4.2355430496e+01 0.0000000000e+00 0.0000e+00 1.0000e+00
        1 -1    0    0  501    0 +0.0000000000e+00 -0.0000000000e+00 -4.9080196132e+01 4.9080196132e+01 0.0000000000e+00 0.0000e+00 -1.0000e+00
       23  1    1    2    0    0 +0.0000000000e+00 -0.0000000000e+00 -6.7247656354e+00 9.1435626628e+01 9.1188000000e+01 0.0000e+00 1.0000e+00
<mgrwt>
<rscale>  0 0.91188000E+02</rscale>
<asrwt>0</asrwt>
<pdfrwt beam="2">  1        1 0.75507994E-02 0.91188000E+02</pdfrwt>
<pdfrwt beam="1">  1       -1 0.65162200E-02 0.91188000E+02</pdfrwt>
<totfact> 0.93470926E+04</totfact>
</mgrwt>
</event>
<event>
 3      1 +4.2044000e+04 9.11880000e+01 7.54677100e-03 1.30000000e-01
        1 -1    0    0  501    0 +0.0000000000e+00 +0.0000000000e+00 +4.1891395560e+01 4.1891395560e+01 0.0000000000e+00 0.0000e+00 -1.0000e+00
       -1 -1    0    0    0  501 -0.0000000000e+00 -0.0000000000e+00 -4.9623862089e+01 4.9623862089e+01 0.0000000000e+00 0.0000e+00 1.0000e+00
       23  1    1    2    0    0 +0.0000000000e+00 +0.0000000000e+00 -7.7324665292e+00 9.1515257649e+01 9.1188000000e+01 0.0000e+00 -1.0000e+00
<mgrwt>
<rscale>  0 0.91188000E+02</rscale>
<asrwt>0</asrwt>
<pdfrwt beam="1">  1        1 0.64448301E-02 0.91188000E+02</pdfrwt>
<pdfrwt beam="2">  1       -1 0.76344403E-02 0.91188000E+02</pdfrwt>
<totfact> 0.91269351E+04</totfact>
</mgrwt>
</event>
<event>
 3      1 +4.2044000e+04 9.11880000e+01 7.54677100e-03 1.30000000e-01
       -2 -1    0    0    0  501 -0.0000000000e+00 +0.0000000000e+00 +1.7884562849e+00 1.7884562849e+00 0.0000000000e+00 0.0000e+00 -1.0000e+00
        2 -1    0    0  501    0 +0.0000000000e+00 -0.0000000000e+00 -1.1623503764e+03 1.1623503764e+03 0.0000000000e+00 0.0000e+00 1.0000e+00
       23  1    1    2    0    0 +0.0000000000e+00 -0.0000000000e+00 -1.1605619202e+03 1.1641388327e+03 9.1188000000e+01 0.0000e+00 -1.0000e+00
<mgrwt>
<rscale>  0 0.91188000E+02</rscale>
<asrwt>0</asrwt>
<pdfrwt beam="2">  1        2 0.17882328E+00 0.91188000E+02</pdfrwt>
<pdfrwt beam="1">  1       -2 0.27514690E-03 0.91188000E+02</pdfrwt>
<totfact> 0.24935524E+05</totfact>
</mgrwt>
</event>
<event>
 3      1 +4.2044000e+04 9.11880000e+01 7.54677100e-03 1.30000000e-01
       -2 -1    0    0    0  501 -0.0000000000e+00 +0.0000000000e+00 +9.9386712652e+00 9.9386712652e+00 0.0000000000e+00 0.0000e+00 -1.0000e+00
        2 -1    0    0  501    0 +0.0000000000e+00 -0.0000000000e+00 -2.0916406032e+02 2.0916406032e+02 0.0000000000e+00 0.0000e+00 1.0000e+00
       23  1    1    2    0    0 +0.0000000000e+00 -0.0000000000e+00 -1.9922538905e+02 2.1910273158e+02 9.1188000000e+01 0.0000e+00 -1.0000e+00
<mgrwt>
<rscale>  0 0.91188000E+02</rscale>
<asrwt>0</asrwt>
<pdfrwt beam="2">  1        2 0.32179088E-01 0.91188000E+02</pdfrwt>
<pdfrwt beam="1">  1       -2 0.15290263E-02 0.91188000E+02</pdfrwt>
<totfact> 0.15716252E+05</totfact>
</mgrwt>
</event>
<event>
 3      1 +4.2044000e+04 9.11880000e+01 7.54677100e-03 1.30000000e-01
        1 -1    0    0  501    0 +0.0000000000e+00 +0.0000000000e+00 +4.2131234559e+02 4.2131234559e+02 0.0000000000e+00 0.0000e+00 -1.0000e+00
       -1 -1    0    0    0  501 -0.0000000000e+00 -0.0000000000e+00 -4.9341370073e+00 4.9341370073e+00 0.0000000000e+00 0.0000e+00 1.0000e+00
       23  1    1    2    0    0 +0.0000000000e+00 +0.0000000000e+00 +4.1637820858e+02 4.2624648260e+02 9.1188000000e+01 0.0000e+00 -1.0000e+00
<mgrwt>
<rscale>  0 0.91188000E+02</rscale>
<asrwt>0</asrwt>
<pdfrwt beam="1">  1        1 0.64817256E-01 0.91188000E+02</pdfrwt>
<pdfrwt beam="2">  1       -1 0.75909833E-03 0.91188000E+02</pdfrwt>
<totfact> 0.13596972E+05</totfact>
</mgrwt>
</event>
<event>
 3      1 +4.2044000e+04 9.11880000e+01 7.54677100e-03 1.30000000e-01
        1 -1    0    0  501    0 +0.0000000000e+00 +0.0000000000e+00 +9.8943858263e+00 9.8943858263e+00 0.0000000000e+00 0.0000e+00 -1.0000e+00
       -1 -1    0    0    0  501 -0.0000000000e+00 -0.0000000000e+00 -2.1010023992e+02 2.1010023992e+02 0.0000000000e+00 0.0000e+00 1.0000e+00
       23  1    1    2    0    0 +0.0000000000e+00 +0.0000000000e+00 -2.0020585410e+02 2.1999462575e+02 9.1188000000e+01 0.0000e+00 -1.0000e+00
<mgrwt>
<rscale>  0 0.91188000E+02</rscale>
<asrwt>0</asrwt>
<pdfrwt beam="1">  1        1 0.15222133E-02 0.91188000E+02</pdfrwt>
<pdfrwt beam="2">  1       -1 0.32323112E-01 0.91188000E+02</pdfrwt>
<totfact> 0.68413549E+04</totfact>
</mgrwt>
</event>
<event>
 3      1 +4.2044000e+04 9.11880000e+01 7.54677100e-03 1.30000000e-01
       -3 -1    0    0    0  501 -0.0000000000e+00 +0.0000000000e+00 +1.8633409676e+00 1.8633409676e+00 0.0000000000e+00 0.0000e+00 1.0000e+00
        3 -1    0    0  501    0 +0.0000000000e+00 -0.0000000000e+00 -1.1156373805e+03 1.1156373805e+03 0.0000000000e+00 0.0000e+00 -1.0000e+00
       23  1    1    2    0    0 +0.0000000000e+00 -0.0000000000e+00 -1.1137740395e+03 1.1175007214e+03 9.1188000000e+01 0.0000e+00 1.0000e+00
<mgrwt>
<rscale>  0 0.91188000E+02</rscale>
<asrwt>0</asrwt>
<pdfrwt beam="2">  1        3 0.17163712E+00 0.91188000E+02</pdfrwt>
<pdfrwt beam="1">  1       -3 0.28666684E-03 0.91188000E+02</pdfrwt>
<totfact> 0.88910255E+03</totfact>
</mgrwt>
</event>
<event>
 3      1 +4.2044000e+04 9.11880000e+01 7.54677100e-03 1.30000000e-01
        1 -1    0    0  501    0 +0.0000000000e+00 +0.0000000000e+00 +1.6580206923e+01 1.6580206923e+01 0.0000000000e+00 0.0000e+00 -1.0000e+00
       -1 -1    0    0    0  501 -0.0000000000e+00 -0.0000000000e+00 -1.2537918529e+02 1.2537918529e+02 0.0000000000e+00 0.0000e+00 1.0000e+00
       23  1    1    2    0    0 +0.0000000000e+00 +0.0000000000e+00 -1.0879897837e+02 1.4195939221e+02 9.1188000000e+01 0.0000e+00 -1.0000e+00
<mgrwt>
<rscale>  0 0.91188000E+02</rscale>
<asrwt>0</asrwt>
<pdfrwt beam="1">  1        1 0.25508011E-02 0.91188000E+02</pdfrwt>
<pdfrwt beam="2">  1       -1 0.19289105E-01 0.91188000E+02</pdfrwt>
<totfact> 0.77795504E+04</totfact>
</mgrwt>
</event>
<event>
 3      1 +4.2044000e+04 9.11880000e+01 7.54677100e-03 1.30000000e-01
       -2 -1    0    0    0  501 -0.0000000000e+00 +0.0000000000e+00 +1.0522955399e+03 1.0522955399e+03 0.0000000000e+00 0.0000e+00 1.0000e+00
        2 -1    0    0  501    0 +0.0000000000e+00 -0.0000000000e+00 -1.9755028481e+00 1.9755028481e+00 0.0000000000e+00 0.0000e+00 -1.0000e+00
       23  1    1    2    0    0 +0.0000000000e+00 -0.0000000000e+00 +1.0503200370e+03 1.0542710427e+03 9.1188000000e+01 0.0000e+00 1.0000e+00
<mgrwt>
<rscale>  0 0.91188000E+02</rscale>
<asrwt>0</asrwt>
<pdfrwt beam="2">  1        2 0.30392436E-03 0.91188000E+02</pdfrwt>
<pdfrwt beam="1">  1       -2 0.16189117E+00 0.91188000E+02</pdfrwt>
<totfact> 0.17574423E+04</totfact>
</mgrwt>
</event>
<event>
 3      1 +4.2044000e+04 9.11880000e+01 7.54677100e-03 1.30000000e-01
       -2 -1    0    0    0  501 -0.0000000000e+00 +0.0000000000e+00 +5.4049815790e+02 5.4049815790e+02 0.0000000000e+00 0.0000e+00 -1.0000e+00
        2 -1    0    0  501    0 +0.0000000000e+00 -0.0000000000e+00 -3.8461053116e+00 3.8461053116e+00 0.0000000000e+00 0.0000e+00 1.0000e+00
       23  1    1    2    0    0 +0.0000000000e+00 -0.0000000000e+00 +5.3665205259e+02 5.4434426322e+02 9.1188000000e+01 0.0000e+00 -1.0000e+00
<mgrwt>
<rscale>  0 0.91188000E+02</rscale>
<asrwt>0</asrwt>
<pdfrwt beam="2">  1        2 0.59170894E-03 0.91188000E+02</pdfrwt>
<pdfrwt beam="1">  1       -2 0.83153503E-01 0.91188000E+02</pdfrwt>
<totfact> 0.34110891E+04</totfact>
</mgrwt>
</event>
<event>
 3      1 +4.2044000e+04 9.11880000e+01 7.54677100e-03 1.30000000e-01
        1 -1    0    0  501    0 +0.0000000000e+00 +0.0000000000e+00 +8.6600308648e+02 8.6600308648e+02 0.0000000000e+00 0.0000e+00 -1.0000e+00
       -1 -1    0    0    0  501 -0.0000000000e+00 -0.0000000000e+00 -2.4004681605e+00 2.4004681605e+00 0.0000000000e+00 0.0000e+00 1.0000e+00
       23  1    1    2    0    0 +0.0000000000e+00 +0.0000000000e+00 +8.6360261832e+02 8.6840355464e+02 9.1188000000e+01 0.0000e+00 -1.0000e+00
<mgrwt>
<rscale>  0 0.91188000E+02</rscale>
<asrwt>0</asrwt>
<pdfrwt beam="1">  1        1 0.13323099E+00 0.91188000E+02</pdfrwt>
<pdfrwt beam="2">  1       -1 0.36930349E-03 0.91188000E+02</pdfrwt>
<totfact> 0.13997832E+05</totfact>
</mgrwt>
</event>
<event>
 3      1 +4.2044000e+04 9.11880000e+01 7.54677100e-03 1.30000000e-01
        2 -1    0    0  501    0 +0.0000000000e+00 +0.0000000000e+00 +2.7442338023e+02 2.7442338023e+02 0.0000000000e+00 0.0000e+00 -1.0000e+00
       -2 -1    0    0    0  501 -0.0000000000e+00 -0.0000000000e+00 -7.5752030831e+00 7.5752030831e+00 0.0000000000e+00 0.0000e+00 1.0000e+00
       23  1    1    2    0    0 +0.0000000000e+00 +0.0000000000e+00 +2.6684817715e+02 2.8199858331e+02 9.1188000000e+01 0.0000e+00 -1.0000e+00
<mgrwt>
<rscale>  0 0.91188000E+02</rscale>
<asrwt>0</asrwt>
<pdfrwt beam="1">  1        2 0.42218974E-01 0.91188000E+02</pdfrwt>
<pdfrwt beam="2">  1       -2 0.11654161E-02 0.91188000E+02</pdfrwt>
<totfact> 0.17373039E+05</totfact>
</mgrwt>
</event>
<event>
 3      1 +4.2044000e+04 9.11880000e+01 7.54677100e-03 1.30000000e-01
       -1 -1    0    0    0  501 -0.0000000000e+00 +0.0000000000e+00 +1.3645740357e+01 1.3645740357e+01 0.0000000000e+00 0.0000e+00 1.0000e+00
        1 -1    0    0  501    0 +0.0000000000e+00 -0.0000000000e+00 -1.5234152063e+02 1.5234152063e+02 0.0000000000e+00 0.0000e+00 -1.0000e+00
       23  1    1    2    0    0 +0.0000000000e+00 -0.0000000000e+00 -1.3869578027e+02 1.6598726098e+02 9.1188000000e+01 0.0000e+00 1.0000e+00
<mgrwt>
<rscale>  0 0.91188000E+02</rscale>
<asrwt>0</asrwt>
<pdfrwt beam="2">  1        1 0.23437158E-01 0.91188000E+02</pdfrwt>
<pdfrwt beam="1">  1       -1 0.20993446E-02 0.91188000E+02</pdfrwt>
<totfact> 0.11241586E+05</totfact>
</mgrwt>
</event>
<event>
 3      1 +4.2044000e+04 9.11880000e+01 7.54677100e-03 1.30000000e-01
        2 -1    0    0  501    0 +0.0000000000e+00 +0.0000000000e+00 +5.3715155717e+00 5.3715155717e+00 0.0000000000e+00 0.0000e+00 -1.0000e+00
       -2 -1    0    0    0  501 -0.0000000000e+00 -0.0000000000e+00 -3.8700675969e+02 3.8700675969e+02 0.0000000000e+00 0.0000e+00 1.0000e+00
       23  1    1    2    0    0 +0.0000000000e+00 +0.0000000000e+00 -3.8163524412e+02 3.9237827526e+02 9.1188000000e+01 0.0000e+00 -1.0000e+00
<mgrwt>
<rscale>  0 0.91188000E+02</rscale>
<asrwt>0</asrwt>
<pdfrwt beam="1">  1        2 0.82638731E-03 0.91188000E+02</pdfrwt>
<pdfrwt beam="2">  1       -2 0.59539480E-01 0.91188000E+02</pdfrwt>
<totfact> 0.43632803E+04</totfact>
</mgrwt>
</event>
<event>
 3      1 +4.2044000e+04 9.11880000e+01 7.54677100e-03 1.30000000e-01
        1 -1    0    0  501    0 +0.0000000000e+00 +0.0000000000e+00 +5.6546244071e+01 5.6546244071e+01 0.0000000000e+00 0.0000e+00 -1.0000e+00
       -1 -1    0    0    0  501 -0.0000000000e+00 -0.0000000000e+00 -3.6763057744e+01 3.6763057744e+01 0.0000000000e+00 0.0000e+00 1.0000e+00
       23  1    1    2    0    0 +0.0000000000e+00 +0.0000000000e+00 +1.9783186327e+01 9.3309301815e+01 9.1188000000e+01 0.0000e+00 -1.0000e+00
<mgrwt>
<rscale>  0 0.91188000E+02</rscale>
<asrwt>0</asrwt>
<pdfrwt beam="1">  1        1 0.86994222E-02 0.91188000E+02</pdfrwt>
<pdfrwt beam="2">  1       -1 0.56558550E-02 0.91188000E+02</pdfrwt>
<totfact> 0.95480189E+04</totfact>
</mgrwt>
</event>
<event>
 3      1 +4.2044000e+04 9.11880000e+01 7.54677100e-03 1.30000000e-01
       -1 -1    0    0    0  501 -0.0000000000e+00 +0.0000000000e+00 +1.5378434923e+01 1.5378434923e+01 0.0000000000e+00 0.0000e+00 1.0000e+00
        1 -1    0    0  501    0 +0.0000000000e+00 -0.0000000000e+00 -1.3517713906e+02 1.3517713906e+02 0.0000000000e+00 0.0000e+00 -1.0000e+00
       23  1    1    2    0    0 +0.0000000000e+00 -0.0000000000e+00 -1.1979870413e+02 1.5055557398e+02 9.1188000000e+01 0.0000e+00 1.0000e+00
<mgrwt>
<rscale>  0 0.91188000E+02</rscale>
<asrwt>0</asrwt>
<pdfrwt beam="2">  1        1 0.20796483E-01 0.91188000E+02</pdfrwt>
<pdfrwt beam="1">  1       -1 0.23659131E-02 0.91188000E+02</pdfrwt>
<totfact> 0.10999592E+05</totfact>
</mgrwt>
</event>
<event>
 3      1 +4.2044000e+04 9.11880000e+01 7.54677100e-03 1.30000000e-01
       -1 -1    0    0    0  501 -0.0000000000e+00 +0.0000000000e+00 +3.9491714715e+00 3.9491714715e+00 0.0000000000e+00 0.0000e+00 1.0000e+00
        1 -1    0    0  501    0 +0.0000000000e+00 -0.0000000000e+00 -5.2639214352e+02 5.2639214352e+02 0.0000000000e+00 0.0000e+00 -1.0000e+00
       23  1    1    2    0    0 +0.0000000000e+00 -0.0000000000e+00 -5.2244297205e+02 5.3034131499e+02 9.1188000000e+01 0.0000e+00 1.0000e+00
<mgrwt>
<rscale>  0 0.91188000E+02</rscale>
<asrwt>0</asrwt>
<pdfrwt beam="2">  1        1 0.80983335E-01 0.91188000E+02</pdfrwt>
<pdfrwt beam="1">  1       -1 0.60756538E-03 0.91188000E+02</pdfrwt>
<totfact> 0.14001711E+05</totfact>
</mgrwt>
</event>
<event>
 3      1 +4.2044000e+04 9.11880000e+01 7.54677100e-03 1.30000000e-01
       -2 -1    0    0    0  501 -0.0000000000e+00 +0.0000000000e+00 +5.7357100694e+02 5.7357100694e+02 0.0000000000e+00 0.0000e+00 1.0000e+00
        2 -1    0    0  501    0 +0.0000000000e+00 -0.0000000000e+00 -3.6243338852e+00 3.6243338852e+00 0.0000000000e+00 0.0000e+00 -1.0000e+00
       23  1    1    2    0    0 +0.0000000000e+00 -0.0000000000e+00 +5.6994667306e+02 5.7719534083e+02 9.1188000000e+01 0.0000e+00 1.0000e+00
<mgrwt>
<rscale>  0 0.91188000E+02</rscale>
<asrwt>0</asrwt>
<pdfrwt beam="2">  1        2 0.55759028E-03 0.91188000E+02</pdfrwt>
<pdfrwt beam="1">  1       -2 0.88241621E-01 0.91188000E+02</pdfrwt>
<totfact> 0.32476662E+04</totfact>
</mgrwt>
</event>
<event>
 3      1 +4.2044000e+04 9.11880000e+01 7.54677100e-03 1.30000000e-01
        2 -1    0    0  501    0 +0.0000000000e+00 +0.0000000000e+00 +2.2884601471e+02 2.2884601471e+02 0.0000000000e+00 0.0000e+00 -1.0000e+00
       -2 -1    0    0    0  501 -0.0000000000e+00 -0.0000000000e+00 -9.0838935459e+00 9.0838935459e+00 0.0000000000e+00 0.0000e+00 1.0000e+00
       23  1    1    2    0    0 +0.0000000000e+00 +0.0000000000e+00 +2.1976212116e+02 2.3792990825e+02 9.1188000000e+01 0.0000e+00 -1.0000e+00
<mgrwt>
<rscale>  0 0.91188000E+02</rscale>
<asrwt>0</asrwt>
<pdfrwt beam="1">  1        2 0.35207075E-01 0.91188000E+02</pdfrwt>
<pdfrwt beam="2">  1       -2 0.13975223E-02 0.91188000E+02</pdfrwt>
<totfact> 0.16242028E+05</totfact>
</mgrwt>
</event>
<event>
 3      1 +4.2044000e+04 9.11880000e+01 7.54677100e-03 1.30000000e-01
       -1 -1    0    0    0  501 -0.0000000000e+00 +0.0000000000e+00 +8.3530710563e+00 8.3530710563e+00 0.0000000000e+00 0.0000e+00 1.0000e+00
        1 -1    0    0  501    0 +0.0000000000e+00 -0.0000000000e+00 -2.4886808959e+02 2.4886808959e+02 0.0000000000e+00 0.0000e+00 -1.0000e+00
       23  1    1    2    0    0 +0.0000000000e+00 -0.0000000000e+00 -2.4051501853e+02 2.5722116065e+02 9.1188000000e+01 0.0000e+00 1.0000e+00
<mgrwt>
<rscale>  0 0.91188000E+02</rscale>
<asrwt>0</asrwt>
<pdfrwt beam="2">  1        1 0.38287395E-01 0.91188000E+02</pdfrwt>
<pdfrwt beam="1">  1       -1 0.12850880E-02 0.91188000E+02</pdfrwt>
<totfact> 0.12352031E+05</totfact>
</mgrwt>
</event>
<event>
 3      1 +4.2044000e+04 9.11880000e+01 7.54677100e-03 1.30000000e-01
       -2 -1    0    0    0  501 -0.0000000000e+00 +0.0000000000e+00 +4.7023182063e+00 4.7023182063e+00 0.0000000000e+00 0.0000e+00 1.0000e+00
        2 -1    0    0  501    0 +0.0000000000e+00 -0.0000000000e+00 -4.4208255265e+02 4.4208255265e+02 0.0000000000e+00 0.0000e+00 -1.0000e+00
       23  1    1    2    0    0 +0.0000000000e+00 -0.0000000000e+00 -4.3738023444e+02 4.4678487086e+02 9.1188000000e+01 0.0000e+00 1.0000e+00
<mgrwt>
<rscale>  0 0.91188000E+02</rscale>
<asrwt>0</asrwt>
<pdfrwt beam="2">  1        2 0.68012704E-01 0.91188000E+02</pdfrwt>
<pdfrwt beam="1">  1       -2 0.72343354E-03 0.91188000E+02</pdfrwt>
<totfact> 0.20670633E+05</totfact>
</mgrwt>
</event>
<event>
 3      1 +4.2044000e+04 9.11880000e+01 7.54677100e-03 1.30000000e-01
       -2 -1    0    0    0  501 -0.0000000000e+00 +0.0000000000e+00 +3.7703970077e+00 3.7703970077e+00 0.0000000000e+00 0.0000e+00 1.0000e+00
        2 -1    0    0  501    0 +0.0000000000e+00 -0.0000000000e+00 -5.5135117913e+02 5.5135117913e+02 0.0000000000e+00 0.0000e+00 -1.0000e+00
       23  1    1    2    0    0 +0.0000000000e+00 -0.0000000000e+00 -5.4758078212e+02 5.5512157614e+02 9.1188000000e+01 0.0000e+00 1.0000e+00
<mgrwt>
<rscale>  0 0.91188000E+02</rscale>
<asrwt>0</asrwt>
<pdfrwt beam="2">  1        2 0.84823271E-01 0.91188000E+02</pdfrwt>
<pdfrwt beam="1">  1       -2 0.58006099E-03 0.91188000E+02</pdfrwt>
<totfact> 0.22217012E+05</totfact>
</mgrwt>
</event>
<event>
 3      1 +4.2044000e+04 9.11880000e+01 7.54677100e-03 1.30000000e-01
       -2 -1    0    0    0  501 -0.0000000000e+00 +0.0000000000e+00 +2.4635941138e+00 2.4635941138e+00 0.0000000000e+00 0.0000e+00 1.0000e+00
        2 -1    0    0  501    0 +0.0000000000e+00 -0.0000000000e+00 -8.4381303897e+02 8.4381303897e+02 0.0000000000e+00 0.0000e+00 -1.0000e+00
       23  1    1    2    0    0 +0.0000000000e+00 -0.0000000000e+00 -8.4134944486e+02 8.4627663309e+02 9.1188000000e+01 0.0000e+00 1.0000e+00
<mgrwt>
<rscale>  0 0.91188000E+02</rscale>
<asrwt>0</asrwt>
<pdfrwt beam="2">  1        2 0.12981748E+00 0.91188000E+02</pdfrwt>
<pdfrwt beam="1">  1       -2 0.37901423E-03 0.91188000E+02</pdfrwt>
<totfact> 0.24577946E+05</totfact>
</mgrwt>
</event>
<event>
 3      1 +4.2044000e+04 9.11880000e+01 7.54677100e-03 1.30000000e-01
       -4 -1    0    0    0  501 -0.0000000000e+00 +0.0000000000e+00 +4.5021152796e+02 4.5021152796e+02 0.0000000000e+00 0.0000e+00 1.0000e+00
        4 -1    0    0  501    0 +0.0000000000e+00 -0.0000000000e+00 -4.6174136087e+00 4.6174136087e+00 0.0000000000e+00 0.0000e+00 -1.0000e+00
       23  1    1    2    0    0 +0.0000000000e+00 -0.0000000000e+00 +4.4559411436e+02 4.5482894157e+02 9.1188000000e+01 0.0000e+00 1.0000e+00
<mgrwt>
<rscale>  0 0.91188000E+02</rscale>
<asrwt>0</asrwt>
<pdfrwt beam="2">  1        4 0.71037168E-03 0.91188000E+02</pdfrwt>
<pdfrwt beam="1">  1       -4 0.69263278E-01 0.91188000E+02</pdfrwt>
<totfact> 0.13945335E+04</totfact>
</mgrwt>
</event>
<event>
 3      1 +4.2044000e+04 9.11880000e+01 7.54677100e-03 1.30000000e-01
        1 -1    0    0  501    0 +0.0000000000e+00 +0.0000000000e+00 +9.9758786415e+00 9.9758786415e+00 0.0000000000e+00 0.0000e+00 -1.0000e+00
       -1 -1    0    0    0  501 -0.0000000000e+00 -0.0000000000e+00 -2.0838393396e+02 2.0838393396e+02 0.0000000000e+00 0.0000e+00 1.0000e+00
       23  1    1    2    0    0 +0.0000000000e+00 +0.0000000000e+00 -1.9840805532e+02 2.1835981260e+02 9.1188000000e+01 0.0000e+00 -1.0000e+00
<mgrwt>
<rscale>  0 0.91188000E+02</rscale>
<asrwt>0</asrwt>
<pdfrwt beam="1">  1        1 0.15347505E-02 0.91188000E+02</pdfrwt>
<pdfrwt beam="2">  1       -1 0.32059067E-01 0.91188000E+02</pdfrwt>
<totfact> 0.68579687E+04</totfact>
</mgrwt>
</event>
<event>
 3      1 +4.2044000e+04 9.11880000e+01 7.54677100e-03 1.30000000e-01
       -2 -1    0    0    0  501 -0.0000000000e+00 +0.0000000000e+00 +1.5539454530e+00 1.5539454530e+00 0.0000000000e+00 0.0000e+00 1.0000e+00
        2 -1    0    0  501    0 +0.0000000000e+00 -0.0000000000e+00 -1.3377643546e+03 1.3377643546e+03 0.0000000000e+00 0.0000e+00 -1.0000e+00
       23  1    1    2    0    0 +0.0000000000e+00 -0.0000000000e+00 -1.3362104091e+03 1.3393183000e+03 9.1188000000e+01 0.0000e+00 1.0000e+00
<mgrwt>
<rscale>  0 0.91188000E+02</rscale>
<asrwt>0</asrwt>
<pdfrwt beam="2">  1        2 0.20581022E+00 0.91188000E+02</pdfrwt>
<pdfrwt beam="1">  1       -2 0.23906816E-03 0.91188000E+02</pdfrwt>
<totfact> 0.24413721E+05</totfact>
</mgrwt>
</event>
<event>
 3      1 +4.2044000e+04 9.11880000e+01 7.54677100e-03 1.30000000e-01
       -2 -1    0    0    0  501 -0.0000000000e+00 +0.0000000000e+00 +1.9346659662e+01 1.9346659662e+01 0.0000000000e+00 0.0000e+00 1.0000e+00
        2 -1    0    0  501    0 +0.0000000000e+00 -0.0000000000e+00 -1.0745073683e+02 1.0745073683e+02 0.0000000000e+00 0.0000e+00 -1.0000e+00
       23  1    1    2    0    0 +0.0000000000e+00 -0.0000000000e+00 -8.8104077173e+01 1.2679739650e+02 9.1188000000e+01 0.0000e+00 1.0000e+00
<mgrwt>
<rscale>  0 0.91188000E+02</rscale>
<asrwt>0</asrwt>
<pdfrwt beam="2">  1        2 0.16530883E-01 0.91188000E+02</pdfrwt>
<pdfrwt beam="1">  1       -2 0.29764092E-02 0.91188000E+02</pdfrwt>
<totfact> 0.12537586E+05</totfact>
</mgrwt>
</event>
<event>
 3      1 +4.2044000e+04 9.11880000e+01 7.54677100e-03 1.30000000e-01
       -4 -1    0    0    0  501 -0.0000000000e+00 +0.0000000000e+00 +1.6074267609e+02 1.6074267609e+02 0.0000000000e+00 0.0000e+00 1.0000e+00
        4 -1    0    0  501    0 +0.0000000000e+00 -0.0000000000e+00 -1.2932550873e+01 1.2932550873e+01 0.0000000000e+00 0.0000e+00 -1.0000e+00
       23  1    1    2    0    0 +0.0000000000e+00 -0.0000000000e+00 +1.4781012522e+02 1.7367522696e+02 9.1188000000e+01 0.0000e+00 1.0000e+00
<mgrwt>
<rscale>  0 0.91188000E+02</rscale>
<asrwt>0</asrwt>
<pdfrwt beam="2">  1        4 0.19896233E-02 0.91188000E+02</pdfrwt>
<pdfrwt beam="1">  1       -4 0.24729641E-01 0.91188000E+02</pdfrwt>
<totfact> 0.22530562E+04</totfact>
</mgrwt>
</event>
<event>
 3      1 +4.2044000e+04 9.11880000e+01 7.54677100e-03 1.30000000e-01
       -2 -1    0    0    0  501 -0.0000000000e+00 +0.0000000000e+00 +1.3760283884e+00 1.3760283884e+00 0.0000000000e+00 0.0000e+00 1.0000e+00
        2 -1    0    0  501    0 +0.0000000000e+00 -0.0000000000e+00 -1.5107339743e+03 1.5107339743e+03 0.0000000000e+00 0.0000e+00 -1.0000e+00
       23  1    1    2    0    0 +0.0000000000e+00 -0.0000000000e+00 -1.5093579459e+03 1.5121100027e+03 9.1188000000e+01 0.0000e+00 1.0000e+00
<mgrwt>
<rscale>  0 0.91188000E+02</rscale>
<asrwt>0</asrwt>
<pdfrwt beam="2">  1        2 0.23241982E+00 0.91188000E+02</pdfrwt>
<pdfrwt beam="1">  1       -2 0.21169739E-03 0.91188000E+02</pdfrwt>
<totfact> 0.23524481E+05</totfact>
</mgrwt>
</event>
<event>
 3      1 +4.2044000e+04 9.11880000e+01 7.54677100e-03 1.30000000e-01
       -2 -1    0    0    0  501 -0.0000000000e+00 +0.0000000000e+00 +2.4997747481e+00 2.4997747481e+00 0.0000000000e+00 0.0000e+00 -1.0000e+00
        2 -1    0    0  501    0 +0.0000000000e+00 -0.0000000000e+00 -8.3160006219e+02 8.3160006219e+02 0.0000000000e+00 0.0000e+00 1.0000e+00
       23  1    1    2    0    0 +0.0000000000e+00 -0.0000000000e+00 -8.2910028744e+02 8.3409983694e+02 9.1188000000e+01 0.0000e+00 -1.0000e+00
<mgrwt>
<rscale>  0 0.91188000E+02</rscale>
<asrwt>0</asrwt>
<pdfrwt beam="2">  1        2 0.12793860E+00 0.91188000E+02</pdfrwt>
<pdfrwt beam="1">  1       -2 0.38458034E-03 0.91188000E+02</pdfrwt>
<totfact> 0.24523368E+05</totfact>
</mgrwt>
</event>
<event>
 3      1 +4.2044000e+04 9.11880000e+01 7.54677100e-03 1.30000000e-01
       -2 -1    0    0    0  501 -0.0000000000e+00 +0.0000000000e+00 +7.0248651578e+01 7.0248651578e+01 0.0000000000e+00 0.0000e+00 1.0000e+00
        2 -1    0    0  501    0 +0.0000000000e+00 -0.0000000000e+00 -2.9592209805e+01 2.9592209805e+01 0.0000000000e+00 0.0000e+00 -1.0000e+00
       23  1    1    2    0    0 +0.0000000000e+00 -0.0000000000e+00 +4.0656441773e+01 9.9840861383e+01 9.1188000000e+01 0.0000e+00 1.0000e+00
<mgrwt>
<rscale>  0 0.91188000E+02</rscale>
<asrwt>0</asrwt>
<pdfrwt beam="2">  1        2 0.45526477E-02 0.91188000E+02</pdfrwt>
<pdfrwt beam="1">  1       -2 0.10807485E-01 0.91188000E+02</pdfrwt>
<totfact> 0.88110824E+04</totfact>
</mgrwt>
</event>
<event>
 3      1 +4.2044000e+04 9.11880000e+01 7.54677100e-03 1.30000000e-01
       -1 -1    0    0    0  501 -0.0000000000e+00 +0.0000000000e+00 +3.6442387253e+02 3.6442387253e+02 0.0000000000e+00 0.0000e+00 1.0000e+00
        1 -1    0    0  501    0 +0.0000000000e+00 -0.0000000000e+00 -5.7043816081e+00 5.7043816081e+00 0.0000000000e+00 0.0000e+00 -1.0000e+00
       23  1    1    2    0    0 +0.0000000000e+00 -0.0000000000e+00 +3.5871949092e+02 3.7012825413e+02 9.1188000000e+01 0.0000e+00 1.0000e+00
<mgrwt>
<rscale>  0 0.91188000E+02</rscale>
<asrwt>0</asrwt>
<pdfrwt beam="2">  1        1 0.87759745E-03 0.91188000E+02</pdfrwt>
<pdfrwt beam="1">  1       -1 0.56065193E-01 0.91188000E+02</pdfrwt>
<totfact> 0.55733110E+04</totfact>
</mgrwt>
</event>
<event>
 3      1 +4.2044000e+04 9.11880000e+01 7.54677100e-03 1.30000000e-01
       -2 -1    0    0    0  501 -0.0000000000e+00 +0.0000000000e+00 +1.2782488419e+00 1.2782488419e+00 0.0000000000e+00 0.0000e+00 1.0000e+00
        2 -1    0    0  501    0 +0.0000000000e+00 -0.0000000000e+00 -1.6262974531e+03 1.6262974531e+03 0.0000000000e+00 0.0000e+00 -1.0000e+00
       23  1    1    2    0    0 +0.0000000000e+00 -0.0000000000e+00 -1.6250192043e+03 1.6275757020e+03 9.1188000000e+01 0.0000e+00 1.0000e+00
<mgrwt>
<rscale>  0 0.91188000E+02</rscale>
<asrwt>0</asrwt>
<pdfrwt beam="2">  1        2 0.25020155E+00 0.91188000E+02</pdfrwt>
<pdfrwt beam="1">  1       -2 0.19665214E-03 0.91188000E+02</pdfrwt>
<totfact> 0.22763836E+05</totfact>
</mgrwt>
</event>
<event>
 3      1 +4.2044000e+04 9.11880000e+01 7.54677100e-03 1.30000000e-01
        1 -1    0    0  501    0 +0.0000000000e+00 +0.0000000000e+00 +4.4709357686e+02 4.4709357686e+02 0.0000000000e+00 0.0000e+00 -1.0000e+00
       -1 -1    0    0    0  501 -0.0000000000e+00 -0.0000000000e+00 -4.6496146301e+00 4.6496146301e+00 0.0000000000e+00 0.0000e+00 1.0000e+00
       23  1    1    2    0    0 +0.0000000000e+00 +0.0000000000e+00 +4.4244396223e+02 4.5174319149e+02 9.1188000000e+01 0.0000e+00 -1.0000e+00
<mgrwt>
<rscale>  0 0.91188000E+02</rscale>
<asrwt>0</asrwt>
<pdfrwt beam="1">  1        1 0.68783593E-01 0.91188000E+02</pdfrwt>
<pdfrwt beam="2">  1       -1 0.71532568E-03 0.91188000E+02</pdfrwt>
<totfact> 0.13718525E+05</totfact>
</mgrwt>
</event>
<event>
 3      1 +4.2044000e+04 9.11880000e+01 7.54677100e-03 1.30000000e-01
       -3 -1    0    0    0  501 -0.0000000000e+00 +0.0000000000e+00 +7.7870055918e+01 7.7870055918e+01 0.0000000000e+00 0.0000e+00 1.0000e+00
        3 -1    0    0  501    0 +0.0000000000e+00 -0.0000000000e+00 -2.6695920678e+01 2.6695920678e+01 0.0000000000e+00 0.0000e+00 -1.0000e+00
       23  1    1    2    0    0 +0.0000000000e+00 -0.0000000000e+00 +5.1174135240e+01 1.0456597660e+02 9.1188000000e+01 0.0000e+00 1.0000e+00
<mgrwt>
<rscale>  0 0.91188000E+02</rscale>
<asrwt>0</asrwt>
<pdfrwt beam="2">  1        3 0.41070648E-02 0.91188000E+02</pdfrwt>
<pdfrwt beam="1">  1       -3 0.11980009E-01 0.91188000E+02</pdfrwt>
<totfact> 0.34325973E+04</totfact>
</mgrwt>
</event>
<event>
 3      1 +4.2044000e+04 9.11880000e+01 7.54677100e-03 1.30000000e-01
        1 -1    0    0  501    0 +0.0000000000e+00 +0.0000000000e+00 +3.3053242685e+02 3.3053242685e+02 0.0000000000e+00 0.0000e+00 -1.0000e+00
       -1 -1    0    0    0  501 -0.0000000000e+00 -0.0000000000e+00 -6.2892856105e+00 6.2892856105e+00 0.0000000000e+00 0.0000e+00 1.0000e+00
       23  1    1    2    0    0 +0.0000000000e+00 +0.0000000000e+00 +3.2424314124e+02 3.3682171246e+02 9.1188000000e+01 0.0000e+00 -1.0000e+00
<mgrwt>
<rscale>  0 0.91188000E+02</rscale>
<asrwt>0</asrwt>
<pdfrwt beam="1">  1        1 0.50851129E-01 0.91188000E+02</pdfrwt>
<pdfrwt beam="2">  1       -1 0.96758266E-03 0.91188000E+02</pdfrwt>
<totfact> 0.13042916E+05</totfact>
</mgrwt>
</event>
<event>
 3      1 +4.2044000e+04 9.11880000e+01 7.54677100e-03 1.30000000e-01
        3 -1    0    0  501    0 +0.0000000000e+00 +0.0000000000e+00 +1.5253459810e+01 1.5253459810e+01 0.0000000000e+00 0.0000e+00 -1.0000e+00
       -3 -1    0    0    0  501 -0.0000000000e+00 -0.0000000000e+00 -1.3628467652e+02 1.3628467652e+02 0.0000000000e+00 0.0000e+00 1.0000e+00
       23  1    1    2    0    0 +0.0000000000e+00 +0.0000000000e+00 -1.2103121671e+02 1.5153813633e+02 9.1188000000e+01 0.0000e+00 -1.0000e+00
<mgrwt>
<rscale>  0 0.91188000E+02</rscale>
<asrwt>0</asrwt>
<pdfrwt beam="1">  1        3 0.23466862E-02 0.91188000E+02</pdfrwt>
<pdfrwt beam="2">  1       -3 0.20966872E-01 0.91188000E+02</pdfrwt>
<totfact> 0.31203861E+04</totfact>
</mgrwt>
</event>
<event>
 3      1 +4.2044000e+04 9.11880000e+01 7.54677100e-03 1.30000000e-01
        2 -1    0    0  501    0 +0.0000000000e+00 +0.0000000000e+00 +7.6796473870e+01 7.6796473870e+01 0.0000000000e+00 0.0000e+00 -1.0000e+00
       -2 -1    0    0    0  501 -0.0000000000e+00 -0.0000000000e+00 -2.7069118297e+01 2.7069118297e+01 0.0000000000e+00 0.0000e+00 1.0000e+00
       23  1    1    2    0    0 +0.0000000000e+00 +0.0000000000e+00 +4.9727355573e+01 1.0386559217e+02 9.1188000000e+01 0.0000e+00 -1.0000e+00
<mgrwt>
<rscale>  0 0.91188000E+02</rscale>
<asrwt>0</asrwt>
<pdfrwt beam="1">  1        2 0.11814842E-01 0.91188000E+02</pdfrwt>
<pdfrwt beam="2">  1       -2 0.41644798E-02 0.91188000E+02</pdfrwt>
<totfact> 0.11348913E+05</totfact>
</mgrwt>
</event>
<event>
 3      1 +4.2044000e+04 9.11880000e+01 7.54677100e-03 1.30000000e-01
        1 -1    0    0  501    0 +0.0000000000e+00 +0.0000000000e+00 +2.2072571021e+01 2.2072571021e+01 0.0000000000e+00 0.0000e+00 -1.0000e+00
       -1 -1    0    0    0  501 -0.0000000000e+00 -0.0000000000e+00 -9.4180819899e+01 9.4180819899e+01 0.0000000000e+00 0.0000e+00 1.0000e+00
       23  1    1    2    0    0 +0.0000000000e+00 +0.0000000000e+00 -7.2108248879e+01 1.1625339092e+02 9.1188000000e+01 0.0000e+00 -1.0000e+00
<mgrwt>
<rscale>  0 0.91188000E+02</rscale>
<asrwt>0</asrwt>
<pdfrwt beam="1">  1        1 0.33957803E-02 0.91188000E+02</pdfrwt>
<pdfrwt beam="2">  1       -1 0.14489356E-01 0.91188000E+02</pdfrwt>
<totfact> 0.82244327E+04</totfact>
</mgrwt>
</event>
<event>
 3      1 +4.2044000e+04 9.11880000e+01 7.54677100e-03 1.30000000e-01
       -1 -1    0    0    0  501 -0.0000000000e+00 +0.0000000000e+00 +5.4672897590e+00 5.4672897590e+00 0.0000000000e+00 0.0000e+00 1.0000e+00
        1 -1    0    0  501    0 +0.0000000000e+00 -0.0000000000e+00 -3.8022730231e+02 3.8022730231e+02 0.0000000000e+00 0.0000e+00 -1.0000e+00
       23  1    1    2    0    0 +0.0000000000e+00 -0.0000000000e+00 -3.7476001255e+02 3.8569459207e+02 9.1188000000e+01 0.0000e+00 1.0000e+00
<mgrwt>
<rscale>  0 0.91188000E+02</rscale>
<asrwt>0</asrwt>
<pdfrwt beam="2">  1        1 0.58496505E-01 0.91188000E+02</pdfrwt>
<pdfrwt beam="1">  1       -1 0.84112154E-03 0.91188000E+02</pdfrwt>
<totfact> 0.13370827E+05</totfact>
</mgrwt>
</event>
<event>
 3      1 +4.2044000e+04 9.11880000e+01 7.54677100e-03 1.30000000e-01
       -1 -1    0    0    0  501 -0.0000000000e+00 +0.0000000000e+00 +5.1933253637e+01 5.1933253637e+01 0.0000000000e+00 0.0000e+00 1.0000e+00
        1 -1    0    0  501    0 +0.0000000000e+00 -0.0000000000e+00 -4.0028549926e+01 4.0028549926e+01 0.0000000000e+00 0.0000e+00 -1.0000e+00
       23  1    1    2    0    0 +0.0000000000e+00 -0.0000000000e+00 +1.1904703711e+01 9.1961803562e+01 9.1188000000e+01 0.0000e+00 1.0000e+00
<mgrwt>
<rscale>  0 0.91188000E+02</rscale>
<asrwt>0</asrwt>
<pdfrwt beam="2">  1        1 0.61582384E-02 0.91188000E+02</pdfrwt>
<pdfrwt beam="1">  1       -1 0.79897313E-02 0.91188000E+02</pdfrwt>
<totfact> 0.90642190E+04</totfact>
</mgrwt>
</event>
<event>
 3      1 +4.2044000e+04 9.11880000e+01 7.54677100e-03 1.30000000e-01
        2 -1    0    0  501    0 +0.0000000000e+00 +0.0000000000e+00 +2.2757703031e+03 2.2757703031e+03 0.0000000000e+00 0.0000e+00 -1.0000e+00
       -2 -1    0    0    0  501 -0.0000000000e+00 -0.0000000000e+00 -9.1345459299e-01 9.1345459299e-01 0.0000000000e+00 0.0000e+00 1.0000e+00
       23  1    1    2    0    0 +0.0000000000e+00 +0.0000000000e+00 +2.2748568485e+03 2.2766837577e+03 9.1188000000e+01 0.0000e+00 -1.0000e+00
<mgrwt>
<rscale>  0 0.91188000E+02</rscale>
<asrwt>0</asrwt>
<pdfrwt beam="1">  1        2 0.35011397E+00 0.91188000E+02</pdfrwt>
<pdfrwt beam="2">  1       -2 0.14053330E-03 0.91188000E+02</pdfrwt>
<totfact> 0.17046385E+05</totfact>
</mgrwt>
</event>
<event>
 3      1 +4.2044000e+04 9.11880000e+01 7.54677100e-03 1.30000000e-01
       -1 -1    0    0    0  501 -0.0000000000e+00 +0.0000000000e+00 +2.5337969721e+00 2.5337969721e+00 0.0000000000e+00 0.0000e+00 1.0000e+00
        1 -1    0    0  501    0 +0.0000000000e+00 -0.0000000000e+00 -8.2043386225e+02 8.2043386225e+02 0.0000000000e+00 0.0000e+00 -1.0000e+00
       23  1    1    2    0    0 +0.0000000000e+00 -0.0000000000e+00 -8.1790006528e+02 8.2296765922e+02 9.1188000000e+01 0.0000e+00 1.0000e+00
<mgrwt>
<rscale>  0 0.91188000E+02</rscale>
<asrwt>0</asrwt>
<pdfrwt beam="2">  1        1 0.12622089E+00 0.91188000E+02</pdfrwt>
<pdfrwt beam="1">  1       -1 0.38981401E-03 0.91188000E+02</pdfrwt>
<totfact> 0.14091266E+05</totfact>
</mgrwt>
</event>
<event>
 3      1 +4.2044000e+04 9.11880000e+01 7.54677100e-03 1.30000000e-01
       -2 -1    0    0    0  501 -0.0000000000e+00 +0.0000000000e+00 +1.2170136645e+02 1.2170136645e+02 0.0000000000e+00 0.0000e+00 1.0000e+00
        2 -1    0    0  501    0 +0.0000000000e+00 -0.0000000000e+00 -1.7081261260e+01 1.7081261260e+01 0.0000000000e+00 0.0000e+00 -1.0000e+00
       23  1    1    2    0    0 +0.0000000000e+00 -0.0000000000e+00 +1.0462010519e+02 1.3878262771e+02 9.1188000000e+01 0.0000e+00 1.0000e+00
<mgrwt>
<rscale>  0 0.91188000E+02</rscale>
<asrwt>0</asrwt>
<pdfrwt beam="2">  1        2 0.26278864E-02 0.91188000E+02</pdfrwt>
<pdfrwt beam="1">  1       -2 0.18723287E-01 0.91188000E+02</pdfrwt>
<totfact> 0.75049954E+04</totfact>
</mgrwt>
</event>
<event>
 3      1 +4.2044000e+04 9.11880000e+01 7.54677100e-03 1.30000000e-01
       -2 -1    0    0    0  501 -0.0000000000e+00 +0.0000000000e+00 +6.4893113942e+00 6.4893113942e+00 0.0000000000e+00 0.0000e+00 1.0000e+00
        2 -1    0    0  501    0 +0.0000000000e+00 -0.0000000000e+00 -3.2034413356e+02 3.2034413356e+02 0.0000000000e+00 0.0000e+00 -1.0000e+00
       23  1    1    2    0    0 +0.0000000000e+00 -0.0000000000e+00 -3.1385482217e+02 3.2683344496e+02 9.1188000000e+01 0.0000e+00 1.0000e+00
<mgrwt>
<rscale>  0 0.91188000E+02</rscale>
<asrwt>0</asrwt>
<pdfrwt beam="2">  1        2 0.49283718E-01 0.91188000E+02</pdfrwt>
<pdfrwt beam="1">  1       -2 0.99835549E-03 0.91188000E+02</pdfrwt>
<totfact> 0.18403328E+05</totfact>
</mgrwt>
</event>
<event>
 3      1 +4.2044000e+04 9.11880000e+01 7.54677100e-03 1.30000000e-01
        3 -1    0    0  501    0 +0.0000000000e+00 +0.0000000000e+00 +8.7713123389e+01 8.7713123389e+01 0.0000000000e+00 0.0000e+00 1.0000e+00
       -3 -1    0    0    0  501 -0.0000000000e+00 -0.0000000000e+00 -2.3700134663e+01 2.3700134663e+01 0.0000000000e+00 0.0000e+00 -1.0000e+00
       23  1    1    2    0    0 +0.0000000000e+00 +0.0000000000e+00 +6.4012988727e+01 1.1141325805e+02 9.1188000000e+01 0.0000e+00 1.0000e+00
<mgrwt>
<rscale>  0 0.91188000E+02</rscale>
<asrwt>0</asrwt>
<pdfrwt beam="1">  1        3 0.13494327E-01 0.91188000E+02</pdfrwt>
<pdfrwt beam="2">  1       -3 0.36461746E-02 0.91188000E+02</pdfrwt>
<totfact> 0.33832934E+04</totfact>
</mgrwt>
</event>
<event>
 3      1 +4.2044000e+04 9.11880000e+01 7.54677100e-03 1.30000000e-01
        3 -1    0    0  501    0 +0.0000000000e+00 +0.0000000000e+00 +3.6072720394e+02 3.6072720394e+02 0.0000000000e+00 0.0000e+00 -1.0000e+00
       -3 -1    0    0    0  501 -0.0000000000e+00 -0.0000000000e+00 -5.7628391020e+00 5.7628391020e+00 0.0000000000e+00 0.0000e+00 1.0000e+00
       23  1    1    2    0    0 +0.0000000000e+00 +0.0000000000e+00 +3.5496436483e+02 3.6649004304e+02 9.1188000000e+01 0.0000e+00 -1.0000e+00
<mgrwt>
<rscale>  0 0.91188000E+02</rscale>
<asrwt>0</asrwt>
<pdfrwt beam="1">  1        3 0.55496475E-01 0.91188000E+02</pdfrwt>
<pdfrwt beam="2">  1       -3 0.88659091E-03 0.91188000E+02</pdfrwt>
<totfact> 0.21660217E+04</totfact>
</mgrwt>
</event>
<event>
 3      1 +4.2044000e+04 9.11880000e+01 7.54677100e-03 1.30000000e-01
        2 -1    0    0  501    0 +0.0000000000e+00 +0.0000000000e+00 +9.4434622391e+01 9.4434622391e+01 0.0000000000e+00 0.0000e+00 1.0000e+00
       -2 -1    0    0    0  501 -0.0000000000e+00 -0.0000000000e+00 -2.2013248779e+01 2.2013248779e+01 0.0000000000e+00 0.0000e+00 -1.0000e+00
       23  1    1    2    0    0 +0.0000000000e+00 +0.0000000000e+00 +7.2421373612e+01 1.1644787117e+02 9.1188000000e+01 0.0000e+00 1.0000e+00
<mgrwt>
<rscale>  0 0.91188000E+02</rscale>
<asrwt>0</asrwt>
<pdfrwt beam="1">  1        2 0.14528403E-01 0.91188000E+02</pdfrwt>
<pdfrwt beam="2">  1       -2 0.33866537E-02 0.91188000E+02</pdfrwt>
<totfact> 0.12053164E+05</totfact>
</mgrwt>
</event>
<event>
 3      1 +4.2044000e+04 9.11880000e+01 7.54677100e-03 1.30000000e-01
       -1 -1    0    0    0  501 -0.0000000000e+00 +0.0000000000e+00 +3.9637276956e+01 3.9637276956e+01 0.0000000000e+00 0.0000e+00 -1.0000e+00
        1 -1    0    0  501    0 +0.0000000000e+00 -0.0000000000e+00 -5.2445904352e+01 5.2445904352e+01 0.0000000000e+00 0.0000e+00 1.0000e+00
       23  1    1    2    0    0 +0.0000000000e+00 -0.0000000000e+00 -1.2808627396e+01 9.2083181308e+01 9.1188000000e+01 0.0000e+00 -1.0000e+00
<mgrwt>
<rscale>  0 0.91188000E+02</rscale>
<asrwt>0</asrwt>
<pdfrwt beam="2">  1        1 0.80686007E-02 0.91188000E+02</pdfrwt>
<pdfrwt beam="1">  1       -1 0.60980426E-02 0.91188000E+02</pdfrwt>
<totfact> 0.94406231E+04</totfact>
</mgrwt>
</event>
<event>
 3      1 +4.2044000e+04 9.11880000e+01 7.54677100e-03 1.30000000e-01
       -1 -1    0    0    0  501 -0.0000000000e+00 +0.0000000000e+00 +1.1065766170e+00 1.1065766170e+00 0.0000000000e+00 0.0000e+00 1.0000e+00
        1 -1    0    0  501    0 +0.0000000000e+00 -0.0000000000e+00 -1.8785981956e+03 1.8785981956e+03 0.0000000000e+00 0.0000e+00 -1.0000e+00
       23  1    1    2    0    0 +0.0000000000e+00 -0.0000000000e+00 -1.8774916190e+03 1.8797047722e+03 9.1188000000e+01 0.0000e+00 1.0000e+00
<mgrwt>
<rscale>  0 0.91188000E+02</rscale>
<asrwt>0</asrwt>
<pdfrwt beam="2">  1        1 0.28901118E+00 0.91188000E+02</pdfrwt>
<pdfrwt beam="1">  1       -1 0.17024487E-03 0.91188000E+02</pdfrwt>
<totfact> 0.87092080E+04</totfact>
</mgrwt>
</event>
<event>
 3      1 +4.2044000e+04 9.11880000e+01 7.54677100e-03 1.30000000e-01
        2 -1    0    0  501    0 +0.0000000000e+00 +0.0000000000e+00 +5.1700862668e+02 5.1700862668e+02 0.0000000000e+00 0.0000e+00 -1.0000e+00
       -2 -1    0    0    0  501 -0.0000000000e+00 -0.0000000000e+00 -4.0208474844e+00 4.0208474844e+00 0.0000000000e+00 0.0000e+00 1.0000e+00
       23  1    1    2    0    0 +0.0000000000e+00 +0.0000000000e+00 +5.1298777919e+02 5.2102947416e+02 9.1188000000e+01 0.0000e+00 -1.0000e+00
<mgrwt>
<rscale>  0 0.91188000E+02</rscale>
<asrwt>0</asrwt>
<pdfrwt beam="1">  1        2 0.79539736E-01 0.91188000E+02</pdfrwt>
<pdfrwt beam="2">  1       -2 0.61859233E-03 0.91188000E+02</pdfrwt>
<totfact> 0.21775789E+05</totfact>
</mgrwt>
</event>
<event>
 3      1 +4.2044000e+04 9.11880000e+01 7.54677100e-03 1.30000000e-01
        2 -1    0    0  501    0 +0.0000000000e+00 +0.0000000000e+00 +2.3248156547e+03 2.3248156547e+03 0.0000000000e+00 0.0000e+00 -1.0000e+00
       -2 -1    0    0    0  501 -0.0000000000e+00 -0.0000000000e+00 -8.9418394607e-01 8.9418394607e-01 0.0000000000e+00 0.0000e+00 1.0000e+00
       23  1    1    2    0    0 +0.0000000000e+00 +0.0000000000e+00 +2.3239214707e+03 2.3257098386e+03 9.1188000000e+01 0.0000e+00 -1.0000e+00
<mgrwt>
<rscale>  0 0.91188000E+02</rscale>
<asrwt>0</asrwt>
<pdfrwt beam="1">  1        2 0.35765911E+00 0.91188000E+02</pdfrwt>
<pdfrwt beam="2">  1       -2 0.13756862E-03 0.91188000E+02</pdfrwt>
<totfact> 0.16566670E+05</totfact>
</mgrwt>
</event>
<event>
 3      1 +4.2044000e+04 9.11880000e+01 7.54677100e-03 1.30000000e-01
       -2 -1    0    0    0  501 -0.0000000000e+00 +0.0000000000e+00 +1.5169242814e+00 1.5169242814e+00 0.0000000000e+00 0.0000e+00 1.0000e+00
        2 -1    0    0  501    0 +0.0000000000e+00 -0.0000000000e+00 -1.3704130532e+03 1.3704130532e+03 0.0000000000e+00 0.0000e+00 -1.0000e+00
       23  1    1    2    0    0 +0.0000000000e+00 -0.0000000000e+00 -1.3688961289e+03 1.3719299775e+03 9.1188000000e+01 0.0000e+00 1.0000e+00
<mgrwt>
<rscale>  0 0.91188000E+02</rscale>
<asrwt>0</asrwt>
<pdfrwt beam="2">  1        2 0.21083217E+00 0.91188000E+02</pdfrwt>
<pdfrwt beam="1">  1       -2 0.23337363E-03 0.91188000E+02</pdfrwt>
<totfact> 0.24271712E+05</totfact>
</mgrwt>
</event>
<event>
 3      1 +4.2044000e+04 9.11880000e+01 7.54677100e-03 1.30000000e-01
        2 -1    0    0  501    0 +0.0000000000e+00 +0.0000000000e+00 +4.2637236885e+02 4.2637236885e+02 0.0000000000e+00 0.0000e+00 -1.0000e+00
       -2 -1    0    0    0  501 -0.0000000000e+00 -0.0000000000e+00 -4.8755805673e+00 4.8755805673e+00 0.0000000000e+00 0.0000e+00 1.0000e+00
       23  1    1    2    0    0 +0.0000000000e+00 +0.0000000000e+00 +4.2149678828e+02 4.3124794942e+02 9.1188000000e+01 0.0000e+00 -1.0000e+00
<mgrwt>
<rscale>  0 0.91188000E+02</rscale>
<asrwt>0</asrwt>
<pdfrwt beam="1">  1        2 0.65595720E-01 0.91188000E+02</pdfrwt>
<pdfrwt beam="2">  1       -2 0.75008965E-03 0.91188000E+02</pdfrwt>
<totfact> 0.20412138E+05</totfact>
</mgrwt>
</event>
<event>
 3      1 +4.2044000e+04 9.11880000e+01 7.54677100e-03 1.30000000e-01
        3 -1    0    0  501    0 +0.0000000000e+00 +0.0000000000e+00 +3.4601508222e+01 3.4601508222e+01 0.0000000000e+00 0.0000e+00 -1.0000e+00
       -3 -1    0    0    0  501 -0.0000000000e+00 -0.0000000000e+00 -6.0078676994e+01 6.0078676994e+01 0.0000000000e+00 0.0000e+00 1.0000e+00
       23  1    1    2    0    0 +0.0000000000e+00 +0.0000000000e+00 -2.5477168772e+01 9.4680185217e+01 9.1188000000e+01 0.0000e+00 -1.0000e+00
<mgrwt>
<rscale>  0 0.91188000E+02</rscale>
<asrwt>0</asrwt>
<pdfrwt beam="1">  1        3 0.53233090E-02 0.91188000E+02</pdfrwt>
<pdfrwt beam="2">  1       -3 0.92428733E-02 0.91188000E+02</pdfrwt>
<totfact> 0.35059939E+04</totfact>
</mgrwt>
</event>
<event>
 3      1 +4.2044000e+04 9.11880000e+01 7.54677100e-03 1.30000000e-01
       -1 -1    0    0    0  501 -0.0000000000e+00 +0.0000000000e+00 +1.5563591968e+00 1.5563591968e+00 0.0000000000e+00 0.0000e+00 1.0000e+00
        1 -1    0    0  501    0 +0.0000000000e+00 -0.0000000000e+00 -1.3356896276e+03 1.3356896276e+03 0.0000000000e+00 0.0000e+00 -1.0000e+00
       23  1    1    2    0    0 +0.0000000000e+00 -0.0000000000e+00 -1.3341332684e+03 1.3372459868e+03 9.1188000000e+01 0.0000e+00 1.0000e+00
<mgrwt>
<rscale>  0 0.91188000E+02</rscale>
<asrwt>0</asrwt>
<pdfrwt beam="2">  1        1 0.20549043E+00 0.91188000E+02</pdfrwt>
<pdfrwt beam="1">  1       -1 0.23944020E-03 0.91188000E+02</pdfrwt>
<totfact> 0.12005773E+05</totfact>
</mgrwt>
</event>
<event>
 3      1 +4.2044000e+04 9.11880000e+01 7.54677100e-03 1.30000000e-01
        1 -1    0    0  501    0 +0.0000000000e+00 +0.0000000000e+00 +9.5654272859e+02 9.5654272859e+02 0.0000000000e+00 0.0000e+00 -1.0000e+00
       -1 -1    0    0    0  501 -0.0000000000e+00 -0.0000000000e+00 -2.1732566396e+00 2.1732566396e+00 0.0000000000e+00 0.0000e+00 1.0000e+00
       23  1    1    2    0    0 +0.0000000000e+00 +0.0000000000e+00 +9.5436947195e+02 9.5871598523e+02 9.1188000000e+01 0.0000e+00 -1.0000e+00
<mgrwt>
<rscale>  0 0.91188000E+02</rscale>
<asrwt>0</asrwt>
<pdfrwt beam="1">  1        1 0.14716008E+00 0.91188000E+02</pdfrwt>
<pdfrwt beam="2">  1       -1 0.33434794E-03 0.91188000E+02</pdfrwt>
<totfact> 0.13745906E+05</totfact>
</mgrwt>
</event>
<event>
 3      1 +4.2044000e+04 9.11880000e+01 7.54677100e-03 1.30000000e-01
       -2 -1    0    0    0  501 -0.0000000000e+00 +0.0000000000e+00 +3.1501247675e+00 3.1501247675e+00 0.0000000000e+00 0.0000e+00 1.0000e+00
        2 -1    0    0  501    0 +0.0000000000e+00 -0.0000000000e+00 -6.5991444449e+02 6.5991444449e+02 0.0000000000e+00 0.0000e+00 -1.0000e+00
       23  1    1    2    0    0 +0.0000000000e+00 -0.0000000000e+00 -6.5676431972e+02 6.6306456926e+02 9.1188000000e+01 0.0000e+00 1.0000e+00
<mgrwt>
<rscale>  0 0.91188000E+02</rscale>
<asrwt>0</asrwt>
<pdfrwt beam="2">  1        2 0.10152531E+00 0.91188000E+02</pdfrwt>
<pdfrwt beam="1">  1       -2 0.48463455E-03 0.91188000E+02</pdfrwt>
<totfact> 0.23368522E+05</totfact>
</mgrwt>
</event>
<event>
 3      1 +4.2044000e+04 9.11880000e+01 7.54677100e-03 1.30000000e-01
       -3 -1    0    0    0  501 -0.0000000000e+00 +0.0000000000e+00 +2.9802451075e+01 2.9802451075e+01 0.0000000000e+00 0.0000e+00 1.0000e+00
        3 -1    0    0  501    0 +0.0000000000e+00 -0.0000000000e+00 -6.9753082750e+01 6.9753082750e+01 0.0000000000e+00 0.0000e+00 -1.0000e+00
       23  1    1    2    0    0 +0.0000000000e+00 -0.0000000000e+00 -3.9950631675e+01 9.9555533825e+01 9.1188000000e+01 0.0000e+00 1.0000e+00
<mgrwt>
<rscale>  0 0.91188000E+02</rscale>
<asrwt>0</asrwt>
<pdfrwt beam="2">  1        3 0.10731243E-01 0.91188000E+02</pdfrwt>
<pdfrwt beam="1">  1       -3 0.45849925E-02 0.91188000E+02</pdfrwt>
<totfact> 0.34692411E+04</totfact>
</mgrwt>
</event>
<event>
 3      1 +4.2044000e+04 9.11880000e+01 7.54677100e-03 1.30000000e-01
        1 -1    0    0  501    0 +0.0000000000e+00 +0.0000000000e+00 +7.8376982493e+02 7.8376982493e+02 0.0000000000e+00 0.0000e+00 -1.0000e+00
       -1 -1    0    0    0  501 -0.0000000000e+00 -0.0000000000e+00 -2.6523256827e+00 2.6523256827e+00 0.0000000000e+00 0.0000e+00 1.0000e+00
       23  1    1    2    0    0 +0.0000000000e+00 +0.0000000000e+00 +7.8111749924e+02 7.8642215061e+02 9.1188000000e+01 0.0000e+00 -1.0000e+00
<mgrwt>
<rscale>  0 0.91188000E+02</rscale>
<asrwt>0</asrwt>
<pdfrwt beam="1">  1        1 0.12057979E+00 0.91188000E+02</pdfrwt>
<pdfrwt beam="2">  1       -1 0.40805073E-03 0.91188000E+02</pdfrwt>
<totfact> 0.14148674E+05</totfact>
</mgrwt>
</event>
<event>
 3      1 +4.2044000e+04 9.11880000e+01 7.54677100e-03 1.30000000e-01
        1 -1    0    0  501    0 +0.0000000000e+00 +0.0000000000e+00 +1.0365190014e+03 1.0365190014e+03 0.0000000000e+00 0.0000e+00 -1.0000e+00
       -1 -1    0    0    0  501 -0.0000000000e+00 -0.0000000000e+00 -2.0055713723e+00 2.0055713723e+00 0.0000000000e+00 0.0000e+00 1.0000e+00
       23  1    1    2    0    0 +0.0000000000e+00 +0.0000000000e+00 +1.0345134300e+03 1.0385245728e+03 9.1188000000e+01 0.0000e+00 -1.0000e+00
<mgrwt>
<rscale>  0 0.91188000E+02</rscale>
<asrwt>0</asrwt>
<pdfrwt beam="1">  1        1 0.15946403E+00 0.91188000E+02</pdfrwt>
<pdfrwt beam="2">  1       -1 0.30855027E-03 0.91188000E+02</pdfrwt>
<totfact> 0.13459542E+05</totfact>
</mgrwt>
</event>
<event>
 3      1 +4.2044000e+04 9.11880000e+01 7.54677100e-03 1.30000000e-01
       -2 -1    0    0    0  501 -0.0000000000e+00 +0.0000000000e+00 +2.7120307517e+01 2.7120307517e+01 0.0000000000e+00 0.0000e+00 1.0000e+00
        2 -1    0    0  501    0 +0.0000000000e+00 -0.0000000000e+00 -7.6651521547e+01 7.6651521547e+01 0.0000000000e+00 0.0000e+00 -1.0000e+00
       23  1    1    2    0    0 +0.0000000000e+00 -0.0000000000e+00 -4.9531214030e+01 1.0377182906e+02 9.1188000000e+01 0.0000e+00 1.0000e+00
<mgrwt>
<rscale>  0 0.91188000E+02</rscale>
<asrwt>0</asrwt>
<pdfrwt beam="2">  1        2 0.11792542E-01 0.91188000E+02</pdfrwt>
<pdfrwt beam="1">  1       -2 0.41723551E-02 0.91188000E+02</pdfrwt>
<totfact> 0.11342847E+05</totfact>
</mgrwt>
</event>
<event>
 3      1 +4.2044000e+04 9.11880000e+01 7.54677100e-03 1.30000000e-01
       -2 -1    0    0    0  501 -0.0000000000e+00 +0.0000000000e+00 +2.3352318177e+01 2.3352318177e+01 0.0000000000e+00 0.0000e+00 1.0000e+00
        2 -1    0    0  501    0 +0.0000000000e+00 -0.0000000000e+00 -8.9019549164e+01 8.9019549164e+01 0.0000000000e+00 0.0000e+00 -1.0000e+00
       23  1    1    2    0    0 +0.0000000000e+00 -0.0000000000e+00 -6.5667230987e+01 1.1237186734e+02 9.1188000000e+01 0.0000e+00 1.0000e+00
<mgrwt>
<rscale>  0 0.91188000E+02</rscale>
<asrwt>0</asrwt>
<pdfrwt beam="2">  1        2 0.13695315E-01 0.91188000E+02</pdfrwt>
<pdfrwt beam="1">  1       -2 0.35926644E-02 0.91188000E+02</pdfrwt>
<totfact> 0.11843443E+05</totfact>
</mgrwt>
</event>
<event>
 3      1 +4.2044000e+04 9.11880000e+01 7.54677100e-03 1.30000000e-01
       -1 -1    0    0    0  501 -0.0000000000e+00 +0.0000000000e+00 +1.7478952255e+01 1.7478952255e+01 0.0000000000e+00 0.0000e+00 1.0000e+00
        1 -1    0    0  501    0 +0.0000000000e+00 -0.0000000000e+00 -1.1893234821e+02 1.1893234821e+02 0.0000000000e+00 0.0000e+00 -1.0000e+00
       23  1    1    2    0    0 +0.0000000000e+00 -0.0000000000e+00 -1.0145339596e+02 1.3641130047e+02 9.1188000000e+01 0.0000e+00 1.0000e+00
<mgrwt>
<rscale>  0 0.91188000E+02</rscale>
<asrwt>0</asrwt>
<pdfrwt beam="2">  1        1 0.18297285E-01 0.91188000E+02</pdfrwt>
<pdfrwt beam="1">  1       -1 0.26890695E-02 0.91188000E+02</pdfrwt>
<totfact> 0.10753604E+05</totfact>
</mgrwt>
</event>
<event>
 3      1 +4.2044000e+04 9.11880000e+01 7.54677100e-03 1.30000000e-01
        1 -1    0    0  501    0 +0.0000000000e+00 +0.0000000000e+00 +3.5039689401e+01 3.5039689401e+01 0.0000000000e+00 0.0000e+00 -1.0000e+00
       -1 -1    0    0    0  501 -0.0000000000e+00 -0.0000000000e+00 -5.9327376228e+01 5.9327376228e+01 0.0000000000e+00 0.0000e+00 1.0000e+00
       23  1    1    2    0    0 +0.0000000000e+00 +0.0000000000e+00 -2.4287686827e+01 9.4367065629e+01 9.1188000000e+01 0.0000e+00 -1.0000e+00
<mgrwt>
<rscale>  0 0.91188000E+02</rscale>
<asrwt>0</asrwt>
<pdfrwt beam="1">  1        1 0.53907215E-02 0.91188000E+02</pdfrwt>
<pdfrwt beam="2">  1       -1 0.91272885E-02 0.91188000E+02</pdfrwt>
<totfact> 0.88808648E+04</totfact>
</mgrwt>
</event>
<event>
 3      1 +4.2044000e+04 9.11880000e+01 7.54677100e-03 1.30000000e-01
       -1 -1    0    0    0  501 -0.0000000000e+00 +0.0000000000e+00 +1.6829954560e+00 1.6829954560e+00 0.0000000000e+00 0.0000e+00 1.0000e+00
        1 -1    0    0  501    0 +0.0000000000e+00 -0.0000000000e+00 -1.2351862440e+03 1.2351862440e+03 0.0000000000e+00 0.0000e+00 -1.0000e+00
       23  1    1    2    0    0 +0.0000000000e+00 -0.0000000000e+00 -1.2335032486e+03 1.2368692395e+03 9.1188000000e+01 0.0000e+00 1.0000e+00
<mgrwt>
<rscale>  0 0.91188000E+02</rscale>
<asrwt>0</asrwt>
<pdfrwt beam="2">  1        1 0.19002867E+00 0.91188000E+02</pdfrwt>
<pdfrwt beam="1">  1       -1 0.25892235E-03 0.91188000E+02</pdfrwt>
<totfact> 0.12547330E+05</totfact>
</mgrwt>
</event>
<event>
 3      1 +4.2044000e+04 9.11880000e+01 7.54677100e-03 1.30000000e-01
       -1 -1    0    0    0  501 -0.0000000000e+00 +0.0000000000e+00 +2.3815695873e+02 2.3815695873e+02 0.0000000000e+00 0.0000e+00 1.0000e+00
        1 -1    0    0  501    0 +0.0000000000e+00 -0.0000000000e+00 -8.7287511862e+00 8.7287511862e+00 0.0000000000e+00 0.0000e+00 -1.0000e+00
       23  1    1    2    0    0 +0.0000000000e+00 -0.0000000000e+00 +2.2942820754e+02 2.4688570992e+02 9.1188000000e+01 0.0000e+00 1.0000e+00
<mgrwt>
<rscale>  0 0.91188000E+02</rscale>
<asrwt>0</asrwt>
<pdfrwt beam="2">  1        1 0.13428850E-02 0.91188000E+02</pdfrwt>
<pdfrwt beam="1">  1       -1 0.36639527E-01 0.91188000E+02</pdfrwt>
<totfact> 0.65797498E+04</totfact>
</mgrwt>
</event>
<event>
 3      1 +4.2044000e+04 9.11880000e+01 7.54677100e-03 1.30000000e-01
       -1 -1    0    0    0  501 -0.0000000000e+00 +0.0000000000e+00 +1.5312649218e+00 1.5312649218e+00 0.0000000000e+00 0.0000e+00 1.0000e+00
        1 -1    0    0  501    0 +0.0000000000e+00 -0.0000000000e+00 -1.3575788268e+03 1.3575788268e+03 0.0000000000e+00 0.0000e+00 -1.0000e+00
       23  1    1    2    0    0 +0.0000000000e+00 -0.0000000000e+00 -1.3560475619e+03 1.3591100917e+03 9.1188000000e+01 0.0000e+00 1.0000e+00
<mgrwt>
<rscale>  0 0.91188000E+02</rscale>
<asrwt>0</asrwt>
<pdfrwt beam="2">  1        1 0.20885817E+00 0.91188000E+02</pdfrwt>
<pdfrwt beam="1">  1       -1 0.23557935E-03 0.91188000E+02</pdfrwt>
<totfact> 0.11882581E+05</totfact>
</mgrwt>
</event>
<event>
 3      1 +4.2044000e+04 9.11880000e+01 7.54677100e-03 1.30000000e-01
       -2 -1    0    0    0  501 -0.0000000000e+00 +0.0000000000e+00 +1.8530882007e+00 1.8530882007e+00 0.0000000000e+00 0.0000e+00 1.0000e+00
        2 -1    0    0  501    0 +0.0000000000e+00 -0.0000000000e+00 -1.1218099792e+03 1.1218099792e+03 0.0000000000e+00 0.0000e+00 -1.0000e+00
       23  1    1    2    0    0 +0.0000000000e+00 -0.0000000000e+00 -1.1199568910e+03 1.1236630674e+03 9.1188000000e+01 0.0000e+00 1.0000e+00
<mgrwt>
<rscale>  0 0.91188000E+02</rscale>
<asrwt>0</asrwt>
<pdfrwt beam="2">  1        2 0.17258658E+00 0.91188000E+02</pdfrwt>
<pdfrwt beam="1">  1       -2 0.28508978E-03 0.91188000E+02</pdfrwt>
<totfact> 0.24991689E+05</totfact>
</mgrwt>
</event>
<event>
 3      1 +4.2044000e+04 9.11880000e+01 7.54677100e-03 1.30000000e-01
       -1 -1    0    0    0  501 -0.0000000000e+00 +0.0000000000e+00 +1.2338039320e+02 1.2338039320e+02 0.0000000000e+00 0.0000e+00 1.0000e+00
        1 -1    0    0  501    0 +0.0000000000e+00 -0.0000000000e+00 -1.6848810270e+01 1.6848810270e+01 0.0000000000e+00 0.0000e+00 -1.0000e+00
       23  1    1    2    0    0 +0.0000000000e+00 -0.0000000000e+00 +1.0653158293e+02 1.4022920347e+02 9.1188000000e+01 0.0000e+00 1.0000e+00
<mgrwt>
<rscale>  0 0.91188000E+02</rscale>
<asrwt>0</asrwt>
<pdfrwt beam="2">  1        1 0.25921247E-02 0.91188000E+02</pdfrwt>
<pdfrwt beam="1">  1       -1 0.18981598E-01 0.91188000E+02</pdfrwt>
<totfact> 0.78057273E+04</totfact>
</mgrwt>
</event>
<event>
 3      1 +4.2044000e+04 9.11880000e+01 7.54677100e-03 1.30000000e-01
       -1 -1    0    0    0  501 -0.0000000000e+00 +0.0000000000e+00 +2.1007541277e+00 2.1007541277e+00 0.0000000000e+00 0.0000e+00 1.0000e+00
        1 -1    0    0  501    0 +0.0000000000e+00 -0.0000000000e+00 -9.8955551657e+02 9.8955551657e+02 0.0000000000e+00 0.0000e+00 -1.0000e+00
       23  1    1    2    0    0 +0.0000000000e+00 -0.0000000000e+00 -9.8745476244e+02 9.9165627069e+02 9.1188000000e+01 0.0000e+00 1.0000e+00
<mgrwt>
<rscale>  0 0.91188000E+02</rscale>
<asrwt>0</asrwt>
<pdfrwt beam="2">  1        1 0.15223935E+00 0.91188000E+02</pdfrwt>
<pdfrwt beam="1">  1       -1 0.32319287E-03 0.91188000E+02</pdfrwt>
<totfact> 0.13634389E+05</totfact>
</mgrwt>
</event>
<event>
 3      1 +4.2044000e+04 9.11880000e+01 7.54677100e-03 1.30000000e-01
       -2 -1    0    0    0  501 -0.0000000000e+00 +0.0000000000e+00 +1.4173085209e+03 1.4173085209e+03 0.0000000000e+00 0.0000e+00 1.0000e+00
        2 -1    0    0  501    0 +0.0000000000e+00 -0.0000000000e+00 -1.4667327582e+00 1.4667327582e+00 0.0000000000e+00 0.0000e+00 -1.0000e+00
       23  1    1    2    0    0 +0.0000000000e+00 -0.0000000000e+00 +1.4158417881e+03 1.4187752536e+03 9.1188000000e+01 0.0000e+00 1.0000e+00
<mgrwt>
<rscale>  0 0.91188000E+02</rscale>
<asrwt>0</asrwt>
<pdfrwt beam="2">  1        2 0.22565233E-03 0.91188000E+02</pdfrwt>
<pdfrwt beam="1">  1       -2 0.21804637E+00 0.91188000E+02</pdfrwt>
<totfact> 0.11641156E+04</totfact>
</mgrwt>
</event>
<event>
 3      1 +4.2044000e+04 9.11880000e+01 7.54677100e-03 1.30000000e-01
       -1 -1    0    0    0  501 -0.0000000000e+00 +0.0000000000e+00 +1.9271774104e+00 1.9271774104e+00 0.0000000000e+00 0.0000e+00 1.0000e+00
        1 -1    0    0  501    0 +0.0000000000e+00 -0.0000000000e+00 -1.0786826500e+03 1.0786826500e+03 0.0000000000e+00 0.0000e+00 -1.0000e+00
       23  1    1    2    0    0 +0.0000000000e+00 -0.0000000000e+00 -1.0767554726e+03 1.0806098274e+03 9.1188000000e+01 0.0000e+00 1.0000e+00
<mgrwt>
<rscale>  0 0.91188000E+02</rscale>
<asrwt>0</asrwt>
<pdfrwt beam="2">  1        1 0.16595135E+00 0.91188000E+02</pdfrwt>
<pdfrwt beam="1">  1       -1 0.29648852E-03 0.91188000E+02</pdfrwt>
<totfact> 0.13287631E+05</totfact>
</mgrwt>
</event>
<event>
 3      1 +4.2044000e+04 9.11880000e+01 7.54677100e-03 1.30000000e-01
        1 -1    0    0  501    0 +0.0000000000e+00 +0.0000000000e+00 +5.1688565990e+02 5.1688565990e+02 0.0000000000e+00 0.0000e+00 -1.0000e+00
       -1 -1    0    0    0  501 -0.0000000000e+00 -0.0000000000e+00 -4.0218040415e+00 4.0218040415e+00 0.0000000000e+00 0.0000e+00 1.0000e+00
       23  1    1    2    0    0 +0.0000000000e+00 +0.0000000000e+00 +5.1286385586e+02 5.2090746395e+02 9.1188000000e+01 0.0000e+00 -1.0000e+00
<mgrwt>
<rscale>  0 0.91188000E+02</rscale>
<asrwt>0</asrwt>
<pdfrwt beam="1">  1        1 0.79520818E-01 0.91188000E+02</pdfrwt>
<pdfrwt beam="2">  1       -1 0.61873949E-03 0.91188000E+02</pdfrwt>
<totfact> 0.13974596E+05</totfact>
</mgrwt>
</event>
<event>
 3      1 +4.2044000e+04 9.11880000e+01 7.54677100e-03 1.30000000e-01
        3 -1    0    0  501    0 +0.0000000000e+00 +0.0000000000e+00 +1.8349242829e+01 1.8349242829e+01 0.0000000000e+00 0.0000e+00 -1.0000e+00
       -3 -1    0    0    0  501 -0.0000000000e+00 -0.0000000000e+00 -1.1329147776e+02 1.1329147776e+02 0.0000000000e+00 0.0000e+00 1.0000e+00
       23  1    1    2    0    0 +0.0000000000e+00 +0.0000000000e+00 -9.4942234935e+01 1.3164072059e+02 9.1188000000e+01 0.0000e+00 -1.0000e+00
<mgrwt>
<rscale>  0 0.91188000E+02</rscale>
<asrwt>0</asrwt>
<pdfrwt beam="1">  1        3 0.28229605E-02 0.91188000E+02</pdfrwt>
<pdfrwt beam="2">  1       -3 0.17429457E-01 0.91188000E+02</pdfrwt>
<totfact> 0.32459026E+04</totfact>
</mgrwt>
</event>
<event>
 3      1 +4.2044000e+04 9.11880000e+01 7.54677100e-03 1.30000000e-01
       -2 -1    0    0    0  501 -0.0000000000e+00 +0.0000000000e+00 +1.3425038366e+00 1.3425038366e+00 0.0000000000e+00 0.0000e+00 1.0000e+00
        2 -1    0    0  501    0 +0.0000000000e+00 -0.0000000000e+00 -1.5484595122e+03 1.5484595122e+03 0.0000000000e+00 0.0000e+00 -1.0000e+00
       23  1    1    2    0    0 +0.0000000000e+00 -0.0000000000e+00 -1.5471170084e+03 1.5498020160e+03 9.1188000000e+01 0.0000e+00 1.0000e+00
<mgrwt>
<rscale>  0 0.91188000E+02</rscale>
<asrwt>0</asrwt>
<pdfrwt beam="2">  1        2 0.23822469E+00 0.91188000E+02</pdfrwt>
<pdfrwt beam="1">  1       -2 0.20653892E-03 0.91188000E+02</pdfrwt>
<totfact> 0.23289278E+05</totfact>
</mgrwt>
</event>
<event>
 3      1 +4.2044000e+04 9.11880000e+01 7.54677100e-03 1.30000000e-01
        1 -1    0    0  501    0 +0.0000000000e+00 +0.0000000000e+00 +4.7571707028e+02 4.7571707028e+02 0.0000000000e+00 0.0000e+00 -1.0000e+00
       -1 -1    0    0    0  501 -0.0000000000e+00 -0.0000000000e+00 -4.3698512538e+00 4.3698512538e+00 0.0000000000e+00 0.0000e+00 1.0000e+00
       23  1    1    2    0    0 +0.0000000000e+00 +0.0000000000e+00 +4.7134721903e+02 4.8008692153e+02 9.1188000000e+01 0.0000e+00 -1.0000e+00
<mgrwt>
<rscale>  0 0.91188000E+02</rscale>
<asrwt>0</asrwt>
<pdfrwt beam="1">  1        1 0.73187201E-01 0.91188000E+02</pdfrwt>
<pdfrwt beam="2">  1       -1 0.67228518E-03 0.91188000E+02</pdfrwt>
<totfact> 0.13836054E+05</totfact>
</mgrwt>
</event>
<event>
 3      1 +4.2044000e+04 9.11880000e+01 7.54677100e-03 1.30000000e-01
       -2 -1    0    0    0  501 -0.0000000000e+00 +0.0000000000e+00 +2.0472726368e+02 2.0472726368e+02 0.0000000000e+00 0.0000e+00 -1.0000e+00
        2 -1    0    0  501    0 +0.0000000000e+00 -0.0000000000e+00 -1.0154059594e+01 1.0154059594e+01 0.0000000000e+00 0.0000e+00 1.0000e+00
       23  1    1    2    0    0 +0.0000000000e+00 -0.0000000000e+00 +1.9457320409e+02 2.1488132328e+02 9.1188000000e+01 0.0000e+00 -1.0000e+00
<mgrwt>
<rscale>  0 0.91188000E+02</rscale>
<asrwt>0</asrwt>
<pdfrwt beam="2">  1        2 0.15621632E-02 0.91188000E+02</pdfrwt>
<pdfrwt beam="1">  1       -2 0.31496499E-01 0.91188000E+02</pdfrwt>
<totfact> 0.61668170E+04</totfact>
</mgrwt>
</event>
<event>
 3      1 +4.2044000e+04 9.11880000e+01 7.54677100e-03 1.30000000e-01
        3 -1    0    0  501    0 +0.0000000000e+00 +0.0000000000e+00 +1.1807374291e+02 1.1807374291e+02 0.0000000000e+00 0.0000e+00 -1.0000e+00
       -3 -1    0    0    0  501 -0.0000000000e+00 -0.0000000000e+00 -1.7606055206e+01 1.7606055206e+01 0.0000000000e+00 0.0000e+00 1.0000e+00
       23  1    1    2    0    0 +0.0000000000e+00 +0.0000000000e+00 +1.0046768770e+02 1.3567979812e+02 9.1188000000e+01 0.0000e+00 -1.0000e+00
<mgrwt>
<rscale>  0 0.91188000E+02</rscale>
<asrwt>0</asrwt>
<pdfrwt beam="1">  1        3 0.18165191E-01 0.91188000E+02</pdfrwt>
<pdfrwt beam="2">  1       -3 0.27086239E-02 0.91188000E+02</pdfrwt>
<totfact> 0.32195488E+04</totfact>
</mgrwt>
</event>
<event>
 3      1 +4.2044000e+04 9.11880000e+01 7.54677100e-03 1.30000000e-01
       -2 -1    0    0    0  501 -0.0000000000e+00 +0.0000000000e+00 +1.7520813182e+00 1.7520813182e+00 0.0000000000e+00 0.0000e+00 1.0000e+00
        2 -1    0    0  501    0 +0.0000000000e+00 -0.0000000000e+00 -1.1864819369e+03 1.1864819369e+03 0.0000000000e+00 0.0000e+00 -1.0000e+00
       23  1    1    2    0    0 +0.0000000000e+00 -0.0000000000e+00 -1.1847298556e+03 1.1882340182e+03 9.1188000000e+01 0.0000e+00 1.0000e+00
<mgrwt>
<rscale>  0 0.91188000E+02</rscale>
<asrwt>0</asrwt>
<pdfrwt beam="2">  1        2 0.18253603E+00 0.91188000E+02</pdfrwt>
<pdfrwt beam="1">  1       -2 0.26955045E-03 0.91188000E+02</pdfrwt>
<totfact> 0.24889862E+05</totfact>
</mgrwt>
</event>
<event>
 3      1 +4.2044000e+04 9.11880000e+01 7.54677100e-03 1.30000000e-01
        2 -1    0    0  501    0 +0.0000000000e+00 +0.0000000000e+00 +9.5568824701e+01 9.5568824701e+01 0.0000000000e+00 0.0000e+00 -1.0000e+00
       -2 -1    0    0    0  501 -0.0000000000e+00 -0.0000000000e+00 -2.1751997500e+01 2.1751997500e+01 0.0000000000e+00 0.0000e+00 1.0000e+00
       23  1    1    2    0    0 +0.0000000000e+00 +0.0000000000e+00 +7.3816827201e+01 1.1732082220e+02 9.1188000000e+01 0.0000e+00 -1.0000e+00
<mgrwt>
<rscale>  0 0.91188000E+02</rscale>
<asrwt>0</asrwt>
<pdfrwt beam="1">  1        2 0.14702896E-01 0.91188000E+02</pdfrwt>
<pdfrwt beam="2">  1       -2 0.33464612E-02 0.91188000E+02</pdfrwt>
<totfact> 0.12096438E+05</totfact>
</mgrwt>
</event>
<event>
 3      1 +4.2044000e+04 9.11880000e+01 7.54677100e-03 1.30000000e-01
        2 -1    0    0  501    0 +0.0000000000e+00 +0.0000000000e+00 +8.1328331543e+00 8.1328331543e+00 0.0000000000e+00 0.0000e+00 -1.0000e+00
       -2 -1    0    0    0  501 -0.0000000000e+00 -0.0000000000e+00 -2.5560746133e+02 2.5560746133e+02 0.0000000000e+00 0.0000e+00 1.0000e+00
       23  1    1    2    0    0 +0.0000000000e+00 +0.0000000000e+00 -2.4747462818e+02 2.6374029448e+02 9.1188000000e+01 0.0000e+00 -1.0000e+00
<mgrwt>
<rscale>  0 0.91188000E+02</rscale>
<asrwt>0</asrwt>
<pdfrwt beam="1">  1        2 0.12512050E-02 0.91188000E+02</pdfrwt>
<pdfrwt beam="2">  1       -2 0.39324227E-01 0.91188000E+02</pdfrwt>
<totfact> 0.55536674E+04</totfact>
</mgrwt>
</event>
<event>
 3      1 +4.2044000e+04 9.11880000e+01 7.54677100e-03 1.30000000e-01
       -1 -1    0    0    0  501 -0.0000000000e+00 +0.0000000000e+00 +5.5206693206e+00 5.5206693206e+00 0.0000000000e+00 0.0000e+00 1.0000e+00
        1 -1    0    0  501    0 +0.0000000000e+00 -0.0000000000e+00 -3.7655087006e+02 3.7655087006e+02 0.0000000000e+00 0.0000e+00 -1.0000e+00
       23  1    1    2    0    0 +0.0000000000e+00 -0.0000000000e+00 -3.7103020074e+02 3.8207153938e+02 9.1188000000e+01 0.0000e+00 1.0000e+00
<mgrwt>
<rscale>  0 0.91188000E+02</rscale>
<asrwt>0</asrwt>
<pdfrwt beam="2">  1        1 0.57930901E-01 0.91188000E+02</pdfrwt>
<pdfrwt beam="1">  1       -1 0.84933377E-03 0.91188000E+02</pdfrwt>
<totfact> 0.13348572E+05</totfact>
</mgrwt>
</event>
<event>
 3      1 +4.2044000e+04 9.11880000e+01 7.54677100e-03 1.30000000e-01
       -1 -1    0    0    0  501 -0.0000000000e+00 +0.0000000000e+00 +3.0974488538e+00 3.0974488538e+00 0.0000000000e+00 0.0000e+00 1.0000e+00
        1 -1    0    0  501    0 +0.0000000000e+00 -0.0000000000e+00 -6.7113709833e+02 6.7113709833e+02 0.0000000000e+00 0.0000e+00 -1.0000e+00
       23  1    1    2    0    0 +0.0000000000e+00 -0.0000000000e+00 -6.6803964948e+02 6.7423454719e+02 9.1188000000e+01 0.0000e+00 1.0000e+00
<mgrwt>
<rscale>  0 0.91188000E+02</rscale>
<asrwt>0</asrwt>
<pdfrwt beam="2">  1        1 0.10325188E+00 0.91188000E+02</pdfrwt>
<pdfrwt beam="1">  1       -1 0.47653049E-03 0.91188000E+02</pdfrwt>
<totfact> 0.14212158E+05</totfact>
</mgrwt>
</event>
<event>
 3      1 +4.2044000e+04 9.11880000e+01 7.54677100e-03 1.30000000e-01
        1 -1    0    0  501    0 +0.0000000000e+00 +0.0000000000e+00 +2.1783047430e+01 2.1783047430e+01 0.0000000000e+00 0.0000e+00 -1.0000e+00
       -1 -1    0    0    0  501 -0.0000000000e+00 -0.0000000000e+00 -9.5432599256e+01 9.5432599256e+01 0.0000000000e+00 0.0000e+00 1.0000e+00
       23  1    1    2    0    0 +0.0000000000e+00 +0.0000000000e+00 -7.3649551826e+01 1.1721564669e+02 9.1188000000e+01 0.0000e+00 -1.0000e+00
<mgrwt>
<rscale>  0 0.91188000E+02</rscale>
<asrwt>0</asrwt>
<pdfrwt beam="1">  1        1 0.33512381E-02 0.91188000E+02</pdfrwt>
<pdfrwt beam="2">  1       -1 0.14681938E-01 0.91188000E+02</pdfrwt>
<totfact> 0.82047518E+04</totfact>
</mgrwt>
</event>
<event>
 3      1 +4.2044000e+04 9.11880000e+01 7.54677100e-03 1.30000000e-01
       -1 -1    0    0    0  501 -0.0000000000e+00 +0.0000000000e+00 +1.7588348255e+02 1.7588348255e+02 0.0000000000e+00 0.0000e+00 1.0000e+00
        1 -1    0    0  501    0 +0.0000000000e+00 -0.0000000000e+00 -1.1819261285e+01 1.1819261285e+01 0.0000000000e+00 0.0000e+00 -1.0000e+00
       23  1    1    2    0    0 +0.0000000000e+00 -0.0000000000e+00 +1.6406422127e+02 1.8770274384e+02 9.1188000000e+01 0.0000e+00 1.0000e+00
<mgrwt>
<rscale>  0 0.91188000E+02</rscale>
<asrwt>0</asrwt>
<pdfrwt beam="2">  1        1 0.18183480E-02 0.91188000E+02</pdfrwt>
<pdfrwt beam="1">  1       -1 0.27058995E-01 0.91188000E+02</pdfrwt>
<totfact> 0.71882757E+04</totfact>
</mgrwt>
</event>
<event>
 3      1 +4.2044000e+04 9.11880000e+01 7.54677100e-03 1.30000000e-01
       -1 -1    0    0    0  501 -0.0000000000e+00 +0.0000000000e+00 +2.9035703031e+01 2.9035703031e+01 0.0000000000e+00 0.0000e+00 1.0000e+00
        1 -1    0    0  501    0 +0.0000000000e+00 -0.0000000000e+00 -7.1595057774e+01 7.1595057774e+01 0.0000000000e+00 0.0000e+00 -1.0000e+00
       23  1    1    2    0    0 +0.0000000000e+00 -0.0000000000e+00 -4.2559354743e+01 1.0063076080e+02 9.1188000000e+01 0.0000e+00 1.0000e+00
<mgrwt>
<rscale>  0 0.91188000E+02</rscale>
<asrwt>0</asrwt>
<pdfrwt beam="2">  1        1 0.11014624E-01 0.91188000E+02</pdfrwt>
<pdfrwt beam="1">  1       -1 0.44670313E-02 0.91188000E+02</pdfrwt>
<totfact> 0.98977873E+04</totfact>
</mgrwt>
</event>
<event>
 3      1 +4.2044000e+04 9.11880000e+01 7.54677100e-03 1.30000000e-01
        1 -1    0    0  501    0 +0.0000000000e+00 +0.0000000000e+00 +5.9357163596e+00 5.9357163596e+00 0.0000000000e+00 0.0000e+00 -1.0000e+00
       -1 -1    0    0    0  501 -0.0000000000e+00 -0.0000000000e+00 -3.5022105338e+02 3.5022105338e+02 0.0000000000e+00 0.0000e+00 1.0000e+00
       23  1    1    2    0    0 +0.0000000000e+00 +0.0000000000e+00 -3.4428533702e+02 3.5615676974e+02 9.1188000000e+01 0.0000e+00 -1.0000e+00
<mgrwt>
<rscale>  0 0.91188000E+02</rscale>
<asrwt>0</asrwt>
<pdfrwt beam="1">  1        1 0.91318714E-03 0.91188000E+02</pdfrwt>
<pdfrwt beam="2">  1       -1 0.53880161E-01 0.91188000E+02</pdfrwt>
<totfact> 0.56752780E+04</totfact>
</mgrwt>
</event>
<event>
 3      1 +4.2044000e+04 9.11880000e+01 7.54677100e-03 1.30000000e-01
        1 -1    0    0  501    0 +0.0000000000e+00 +0.0000000000e+00 +7.5022920845e+02 7.5022920845e+02 0.0000000000e+00 0.0000e+00 -1.0000e+00
       -1 -1    0    0    0  501 -0.0000000000e+00 -0.0000000000e+00 -2.7709036286e+00 2.7709036286e+00 0.0000000000e+00 0.0000e+00 1.0000e+00
       23  1    1    2    0    0 +0.0000000000e+00 +0.0000000000e+00 +7.4745830482e+02 7.5300011208e+02 9.1188000000e+01 0.0000e+00 -1.0000e+00
<mgrwt>
<rscale>  0 0.91188000E+02</rscale>
<asrwt>0</asrwt>
<pdfrwt beam="1">  1        1 0.11541972E+00 0.91188000E+02</pdfrwt>
<pdfrwt beam="2">  1       -1 0.42629347E-03 0.91188000E+02</pdfrwt>
<totfact> 0.14185905E+05</totfact>
</mgrwt>
</event>
<event>
 3      1 +4.2044000e+04 9.11880000e+01 7.54677100e-03 1.30000000e-01
       -1 -1    0    0    0  501 -0.0000000000e+00 +0.0000000000e+00 +6.5544204834e+00 6.5544204834e+00 0.0000000000e+00 0.0000e+00 1.0000e+00
        1 -1    0    0  501    0 +0.0000000000e+00 -0.0000000000e+00 -3.1716195829e+02 3.1716195829e+02 0.0000000000e+00 0.0000e+00 -1.0000e+00
       23  1    1    2    0    0 +0.0000000000e+00 -0.0000000000e+00 -3.1060753781e+02 3.2371637878e+02 9.1188000000e+01 0.0000e+00 1.0000e+00
<mgrwt>
<rscale>  0 0.91188000E+02</rscale>
<asrwt>0</asrwt>
<pdfrwt beam="2">  1        1 0.48794142E-01 0.91188000E+02</pdfrwt>
<pdfrwt beam="1">  1       -1 0.10083725E-02 0.91188000E+02</pdfrwt>
<totfact> 0.12943351E+05</totfact>
</mgrwt>
</event>
<event>
 3      1 +4.2044000e+04 9.11880000e+01 7.54677100e-03 1.30000000e-01
       -2 -1    0    0    0  501 -0.0000000000e+00 +0.0000000000e+00 +2.2358277046e+01 2.2358277046e+01 0.0000000000e+00 0.0000e+00 1.0000e+00
        2 -1    0    0  501    0 +0.0000000000e+00 -0.0000000000e+00 -9.2977326997e+01 9.2977326997e+01 0.0000000000e+00 0.0000e+00 -1.0000e+00
       23  1    1    2    0    0 +0.0000000000e+00 -0.0000000000e+00 -7.0619049952e+01 1.1533560404e+02 9.1188000000e+01 0.0000e+00 1.0000e+00
<mgrwt>
<rscale>  0 0.91188000E+02</rscale>
<asrwt>0</asrwt>
<pdfrwt beam="2">  1        2 0.14304204E-01 0.91188000E+02</pdfrwt>
<pdfrwt beam="1">  1       -2 0.34397350E-02 0.91188000E+02</pdfrwt>
<totfact> 0.11997238E+05</totfact>
</mgrwt>
</event>
<event>
 3      1 +4.2044000e+04 9.11880000e+01 7.54677100e-03 1.30000000e-01
       -4 -1    0    0    0  501 -0.0000000000e+00 +0.0000000000e+00 +1.3775665634e+00 1.3775665634e+00 0.0000000000e+00 0.0000e+00 1.0000e+00
        4 -1    0    0  501    0 +0.0000000000e+00 -0.0000000000e+00 -1.5090471061e+03 1.5090471061e+03 0.0000000000e+00 0.0000e+00 -1.0000e+00
       23  1    1    2    0    0 +0.0000000000e+00 -0.0000000000e+00 -1.5076695395e+03 1.5104246727e+03 9.1188000000e+01 0.0000e+00 1.0000e+00
<mgrwt>
<rscale>  0 0.91188000E+02</rscale>
<asrwt>0</asrwt>
<pdfrwt beam="2">  1        4 0.23216135E+00 0.91188000E+02</pdfrwt>
<pdfrwt beam="1">  1       -4 0.21193308E-03 0.91188000E+02</pdfrwt>
<totfact> 0.41314149E+03</totfact>
</mgrwt>
</event>
<event>
 3      1 +4.2044000e+04 9.11880000e+01 7.54677100e-03 1.30000000e-01
        1 -1    0    0  501    0 +0.0000000000e+00 +0.0000000000e+00 +4.0388047218e+02 4.0388047218e+02 0.0000000000e+00 0.0000e+00 -1.0000e+00
       -1 -1    0    0    0  501 -0.0000000000e+00 -0.0000000000e+00 -5.1470991523e+00 5.1470991523e+00 0.0000000000e+00 0.0000e+00 1.0000e+00
       23  1    1    2    0    0 +0.0000000000e+00 +0.0000000000e+00 +3.9873337303e+02 4.0902757134e+02 9.1188000000e+01 0.0000e+00 -1.0000e+00
<mgrwt>
<rscale>  0 0.91188000E+02</rscale>
<asrwt>0</asrwt>
<pdfrwt beam="1">  1        1 0.62135432E-01 0.91188000E+02</pdfrwt>
<pdfrwt beam="2">  1       -1 0.79186173E-03 0.91188000E+02</pdfrwt>
<totfact> 0.13506007E+05</totfact>
</mgrwt>
</event>
<event>
 3      1 +4.2044000e+04 9.11880000e+01 7.54677100e-03 1.30000000e-01
       -1 -1    0    0    0  501 -0.0000000000e+00 +0.0000000000e+00 +1.7545971488e+01 1.7545971488e+01 0.0000000000e+00 0.0000e+00 1.0000e+00
        1 -1    0    0  501    0 +0.0000000000e+00 -0.0000000000e+00 -1.1847806987e+02 1.1847806987e+02 0.0000000000e+00 0.0000e+00 -1.0000e+00
       23  1    1    2    0    0 +0.0000000000e+00 -0.0000000000e+00 -1.0093209839e+02 1.3602404136e+02 9.1188000000e+01 0.0000e+00 1.0000e+00
<mgrwt>
<rscale>  0 0.91188000E+02</rscale>
<asrwt>0</asrwt>
<pdfrwt beam="2">  1        1 0.18227395E-01 0.91188000E+02</pdfrwt>
<pdfrwt beam="1">  1       -1 0.26993802E-02 0.91188000E+02</pdfrwt>
<totfact> 0.10746476E+05</totfact>
</mgrwt>
</event>
<event>
 3      1 +4.2044000e+04 9.11880000e+01 7.54677100e-03 1.30000000e-01
       -1 -1    0    0    0  501 -0.0000000000e+00 +0.0000000000e+00 +9.3252239159e+00 9.3252239159e+00 0.0000000000e+00 0.0000e+00 1.0000e+00
        1 -1    0    0  501    0 +0.0000000000e+00 -0.0000000000e+00 -2.2292363752e+02 2.2292363752e+02 0.0000000000e+00 0.0000e+00 -1.0000e+00
       23  1    1    2    0    0 +0.0000000000e+00 -0.0000000000e+00 -2.1359841360e+02 2.3224886143e+02 9.1188000000e+01 0.0000e+00 1.0000e+00
<mgrwt>
<rscale>  0 0.91188000E+02</rscale>
<asrwt>0</asrwt>
<pdfrwt beam="2">  1        1 0.34295943E-01 0.91188000E+02</pdfrwt>
<pdfrwt beam="1">  1       -1 0.14346499E-02 0.91188000E+02</pdfrwt>
<totfact> 0.12089493E+05</totfact>
</mgrwt>
</event>
<event>
 3      1 +4.2044000e+04 9.11880000e+01 7.54677100e-03 1.30000000e-01
        1 -1    0    0  501    0 +0.0000000000e+00 +0.0000000000e+00 +2.1875996310e+01 2.1875996310e+01 0.0000000000e+00 0.0000e+00 -1.0000e+00
       -1 -1    0    0    0  501 -0.0000000000e+00 -0.0000000000e+00 -9.5027115862e+01 9.5027115862e+01 0.0000000000e+00 0.0000e+00 1.0000e+00
       23  1    1    2    0    0 +0.0000000000e+00 +0.0000000000e+00 -7.3151119552e+01 1.1690311217e+02 9.1188000000e+01 0.0000e+00 -1.0000e+00
<mgrwt>
<rscale>  0 0.91188000E+02</rscale>
<asrwt>0</asrwt>
<pdfrwt beam="1">  1        1 0.33655379E-02 0.91188000E+02</pdfrwt>
<pdfrwt beam="2">  1       -1 0.14619556E-01 0.91188000E+02</pdfrwt>
<totfact> 0.82111061E+04</totfact>
</mgrwt>
</event>
<event>
 3      1 +4.2044000e+04 9.11880000e+01 7.54677100e-03 1.30000000e-01
       -2 -1    0    0    0  501 -0.0000000000e+00 +0.0000000000e+00 +3.0834769215e+00 3.0834769215e+00 0.0000000000e+00 0.0000e+00 1.0000e+00
        2 -1    0    0  501    0 +0.0000000000e+00 -0.0000000000e+00 -6.7417817254e+02 6.7417817254e+02 0.0000000000e+00 0.0000e+00 -1.0000e+00
       23  1    1    2    0    0 +0.0000000000e+00 -0.0000000000e+00 -6.7109469562e+02 6.7726164946e+02 9.1188000000e+01 0.0000e+00 1.0000e+00
<mgrwt>
<rscale>  0 0.91188000E+02</rscale>
<asrwt>0</asrwt>
<pdfrwt beam="2">  1        2 0.10371990E+00 0.91188000E+02</pdfrwt>
<pdfrwt beam="1">  1       -2 0.47438025E-03 0.91188000E+02</pdfrwt>
<totfact> 0.23493939E+05</totfact>
</mgrwt>
</event>
<event>
 3      1 +4.2044000e+04 9.11880000e+01 7.54677100e-03 1.30000000e-01
        1 -1    0    0  501    0 +0.0000000000e+00 +0.0000000000e+00 +3.4854483275e+01 3.4854483275e+01 0.0000000000e+00 0.0000e+00 -1.0000e+00
       -1 -1    0    0    0  501 -0.0000000000e+00 -0.0000000000e+00 -5.9642623866e+01 5.9642623866e+01 0.0000000000e+00 0.0000e+00 1.0000e+00
       23  1    1    2    0    0 +0.0000000000e+00 +0.0000000000e+00 -2.4788140591e+01 9.4497107141e+01 9.1188000000e+01 0.0000e+00 -1.0000e+00
<mgrwt>
<rscale>  0 0.91188000E+02</rscale>
<asrwt>0</asrwt>
<pdfrwt beam="1">  1        1 0.53622282E-02 0.91188000E+02</pdfrwt>
<pdfrwt beam="2">  1       -1 0.91757884E-02 0.91188000E+02</pdfrwt>
<totfact> 0.88735493E+04</totfact>
</mgrwt>
</event>
<event>
 3      1 +4.2044000e+04 9.11880000e+01 7.54677100e-03 1.30000000e-01
        1 -1    0    0  501    0 +0.0000000000e+00 +0.0000000000e+00 +1.1414444380e+01 1.1414444380e+01 0.0000000000e+00 0.0000e+00 -1.0000e+00
       -1 -1    0    0    0  501 -0.0000000000e+00 -0.0000000000e+00 -1.8212124627e+02 1.8212124627e+02 0.0000000000e+00 0.0000e+00 1.0000e+00
       23  1    1    2    0    0 +0.0000000000e+00 +0.0000000000e+00 -1.7070680189e+02 1.9353569065e+02 9.1188000000e+01 0.0000e+00 -1.0000e+00
<mgrwt>
<rscale>  0 0.91188000E+02</rscale>
<asrwt>0</asrwt>
<pdfrwt beam="1">  1        1 0.17560683E-02 0.91188000E+02</pdfrwt>
<pdfrwt beam="2">  1       -1 0.28018655E-01 0.91188000E+02</pdfrwt>
<totfact> 0.71223889E+04</totfact>
</mgrwt>
</event>
<event>
 3      1 +4.2044000e+04 9.11880000e+01 7.54677100e-03 1.30000000e-01
        2 -1    0    0  501    0 +0.0000000000e+00 +0.0000000000e+00 +5.2738284184e+01 5.2738284184e+01 0.0000000000e+00 0.0000e+00 -1.0000e+00
       -2 -1    0    0    0  501 -0.0000000000e+00 -0.0000000000e+00 -3.9417528806e+01 3.9417528806e+01 0.0000000000e+00 0.0000e+00 1.0000e+00
       23  1    1    2    0    0 +0.0000000000e+00 +0.0000000000e+00 +1.3320755378e+01 9.2155812990e+01 9.1188000000e+01 0.0000e+00 -1.0000e+00
<mgrwt>
<rscale>  0 0.91188000E+02</rscale>
<asrwt>0</asrwt>
<pdfrwt beam="1">  1        2 0.81135822E-02 0.91188000E+02</pdfrwt>
<pdfrwt beam="2">  1       -2 0.60642352E-02 0.91188000E+02</pdfrwt>
<totfact> 0.10246438E+05</totfact>
</mgrwt>
</event>
<event>
 3      1 +4.2044000e+04 9.11880000e+01 7.54677100e-03 1.30000000e-01
       -2 -1    0    0    0  501 -0.0000000000e+00 +0.0000000000e+00 +8.1167669559e+00 8.1167669559e+00 0.0000000000e+00 0.0000e+00 1.0000e+00
        2 -1    0    0  501    0 +0.0000000000e+00 -0.0000000000e+00 -2.5611340664e+02 2.5611340664e+02 0.0000000000e+00 0.0000e+00 -1.0000e+00
       23  1    1    2    0    0 +0.0000000000e+00 -0.0000000000e+00 -2.4799663969e+02 2.6423017360e+02 9.1188000000e+01 0.0000e+00 1.0000e+00
<mgrwt>
<rscale>  0 0.91188000E+02</rscale>
<asrwt>0</asrwt>
<pdfrwt beam="2">  1        2 0.39402057E-01 0.91188000E+02</pdfrwt>
<pdfrwt beam="1">  1       -2 0.12487335E-02 0.91188000E+02</pdfrwt>
<totfact> 0.16931343E+05</totfact>
</mgrwt>
</event>
<event>
 3      1 +4.2044000e+04 9.11880000e+01 7.54677100e-03 1.30000000e-01
        2 -1    0    0  501    0 +0.0000000000e+00 +0.0000000000e+00 +3.8849975173e+03 3.8849975173e+03 0.0000000000e+00 0.0000e+00 1.0000e+00
       -2 -1    0    0    0  501 -0.0000000000e+00 -0.0000000000e+00 -5.3508730102e-01 5.3508730102e-01 0.0000000000e+00 0.0000e+00 -1.0000e+00
       23  1    1    2    0    0 +0.0000000000e+00 +0.0000000000e+00 +3.8844624300e+03 3.8855326046e+03 9.1188000000e+01 0.0000e+00 1.0000e+00
<mgrwt>
<rscale>  0 0.91188000E+02</rscale>
<asrwt>0</asrwt>
<pdfrwt beam="1">  1        2 0.59766934E+00 0.91188000E+02</pdfrwt>
<pdfrwt beam="2">  1       -2 0.82324234E-04 0.91188000E+02</pdfrwt>
<totfact> 0.40048814E+04</totfact>
</mgrwt>
</event>
<event>
 3      1 +4.2044000e+04 9.11880000e+01 7.54677100e-03 1.30000000e-01
        3 -1    0    0  501    0 +0.0000000000e+00 +0.0000000000e+00 +1.3598903807e+01 1.3598903807e+01 0.0000000000e+00 0.0000e+00 -1.0000e+00
       -3 -1    0    0    0  501 -0.0000000000e+00 -0.0000000000e+00 -1.5286620639e+02 1.5286620639e+02 0.0000000000e+00 0.0000e+00 1.0000e+00
       23  1    1    2    0    0 +0.0000000000e+00 +0.0000000000e+00 -1.3926730258e+02 1.6646511020e+02 9.1188000000e+01 0.0000e+00 -1.0000e+00
<mgrwt>
<rscale>  0 0.91188000E+02</rscale>
<asrwt>0</asrwt>
<pdfrwt beam="1">  1        3 0.20921389E-02 0.91188000E+02</pdfrwt>
<pdfrwt beam="2">  1       -3 0.23517879E-01 0.91188000E+02</pdfrwt>
<totfact> 0.30319543E+04</totfact>
</mgrwt>
</event>
<event>
 3      1 +4.2044000e+04 9.11880000e+01 7.54677100e-03 1.30000000e-01
        1 -1    0    0  501    0 +0.0000000000e+00 +0.0000000000e+00 +2.9381132465e+01 2.9381132465e+01 0.0000000000e+00 0.0000e+00 -1.0000e+00
       -1 -1    0    0    0  501 -0.0000000000e+00 -0.0000000000e+00 -7.0753325742e+01 7.0753325742e+01 0.0000000000e+00 0.0000e+00 1.0000e+00
       23  1    1    2    0    0 +0.0000000000e+00 +0.0000000000e+00 -4.1372193277e+01 1.0013445821e+02 9.1188000000e+01 0.0000e+00 -1.0000e+00
<mgrwt>
<rscale>  0 0.91188000E+02</rscale>
<asrwt>0</asrwt>
<pdfrwt beam="1">  1        1 0.45201742E-02 0.91188000E+02</pdfrwt>
<pdfrwt beam="2">  1       -1 0.10885127E-01 0.91188000E+02</pdfrwt>
<totfact> 0.86362351E+04</totfact>
</mgrwt>
</event>
<event>
 3      1 +4.2044000e+04 9.11880000e+01 7.54677100e-03 1.30000000e-01
       -2 -1    0    0    0  501 -0.0000000000e+00 +0.0000000000e+00 +7.8368609604e+00 7.8368609604e+00 0.0000000000e+00 0.0000e+00 1.0000e+00
        2 -1    0    0  501    0 +0.0000000000e+00 -0.0000000000e+00 -2.6526090568e+02 2.6526090568e+02 0.0000000000e+00 0.0000e+00 -1.0000e+00
       23  1    1    2    0    0 +0.0000000000e+00 -0.0000000000e+00 -2.5742404472e+02 2.7309776664e+02 9.1188000000e+01 0.0000e+00 1.0000e+00
<mgrwt>
<rscale>  0 0.91188000E+02</rscale>
<asrwt>0</asrwt>
<pdfrwt beam="2">  1        2 0.40809369E-01 0.91188000E+02</pdfrwt>
<pdfrwt beam="1">  1       -2 0.12056710E-02 0.91188000E+02</pdfrwt>
<totfact> 0.17154282E+05</totfact>
</mgrwt>
</event>
<event>
 3      1 +4.2044000e+04 9.11880000e+01 7.54677100e-03 1.30000000e-01
        2 -1    0    0  501    0 +0.0000000000e+00 +0.0000000000e+00 +3.2875427797e+03 3.2875427797e+03 0.0000000000e+00 0.0000e+00 -1.0000e+00
       -2 -1    0    0    0  501 -0.0000000000e+00 -0.0000000000e+00 -6.3233027684e-01 6.3233027684e-01 0.0000000000e+00 0.0000e+00 1.0000e+00
       23  1    1    2    0    0 +0.0000000000e+00 +0.0000000000e+00 +3.2869104494e+03 3.2881751100e+03 9.1188000000e+01 0.0000e+00 -1.0000e+00
<mgrwt>
<rscale>  0 0.91188000E+02</rscale>
<asrwt>0</asrwt>
<pdfrwt beam="1">  1        2 0.50576213E+00 0.91188000E+02</pdfrwt>
<pdfrwt beam="2">  1       -2 0.97284213E-04 0.91188000E+02</pdfrwt>
<totfact> 0.78358337E+04</totfact>
</mgrwt>
</event>
<event>
 3      1 +4.2044000e+04 9.11880000e+01 7.54677100e-03 1.30000000e-01
       -2 -1    0    0    0  501 -0.0000000000e+00 +0.0000000000e+00 +1.6765532615e+00 1.6765532615e+00 0.0000000000e+00 0.0000e+00 1.0000e+00
        2 -1    0    0  501    0 +0.0000000000e+00 -0.0000000000e+00 -1.2399324756e+03 1.2399324756e+03 0.0000000000e+00 0.0000e+00 -1.0000e+00
       23  1    1    2    0    0 +0.0000000000e+00 -0.0000000000e+00 -1.2382559224e+03 1.2416090289e+03 9.1188000000e+01 0.0000e+00 1.0000e+00
<mgrwt>
<rscale>  0 0.91188000E+02</rscale>
<asrwt>0</asrwt>
<pdfrwt beam="2">  1        2 0.19075805E+00 0.91188000E+02</pdfrwt>
<pdfrwt beam="1">  1       -2 0.25793234E-03 0.91188000E+02</pdfrwt>
<totfact> 0.24757789E+05</totfact>
</mgrwt>
</event>
<event>
 3      1 +4.2044000e+04 9.11880000e+01 7.54677100e-03 1.30000000e-01
        2 -1    0    0  501    0 +0.0000000000e+00 +0.0000000000e+00 +3.7390734879e+03 3.7390734879e+03 0.0000000000e+00 0.0000e+00 1.0000e+00
       -2 -1    0    0    0  501 -0.0000000000e+00 -0.0000000000e+00 -5.5597003983e-01 5.5597003983e-01 0.0000000000e+00 0.0000e+00 -1.0000e+00
       23  1    1    2    0    0 +0.0000000000e+00 +0.0000000000e+00 +3.7385175179e+03 3.7396294579e+03 9.1188000000e+01 0.0000e+00 1.0000e+00
<mgrwt>
<rscale>  0 0.91188000E+02</rscale>
<asrwt>0</asrwt>
<pdfrwt beam="1">  1        2 0.57522194E+00 0.91188000E+02</pdfrwt>
<pdfrwt beam="2">  1       -2 0.85536846E-04 0.91188000E+02</pdfrwt>
<totfact> 0.48017807E+04</totfact>
</mgrwt>
</event>
<event>
 3      1 +4.2044000e+04 9.11880000e+01 7.54677100e-03 1.30000000e-01
        1 -1    0    0  501    0 +0.0000000000e+00 +0.0000000000e+00 +2.4990848670e+03 2.4990848670e+03 0.0000000000e+00 0.0000e+00 -1.0000e+00
       -1 -1    0    0    0  501 -0.0000000000e+00 -0.0000000000e+00 -8.3182962830e-01 8.3182962830e-01 0.0000000000e+00 0.0000e+00 1.0000e+00
       23  1    1    2    0    0 +0.0000000000e+00 +0.0000000000e+00 +2.4982530374e+03 2.4999166966e+03 9.1188000000e+01 0.0000e+00 -1.0000e+00
<mgrwt>
<rscale>  0 0.91188000E+02</rscale>
<asrwt>0</asrwt>
<pdfrwt beam="1">  1        1 0.38446858E+00 0.91188000E+02</pdfrwt>
<pdfrwt beam="2">  1       -1 0.12797579E-03 0.91188000E+02</pdfrwt>
<totfact> 0.52335462E+04</totfact>
</mgrwt>
</event>
<event>
 3      1 +4.2044000e+04 9.11880000e+01 7.54677100e-03 1.30000000e-01
        2 -1    0    0  501    0 +0.0000000000e+00 +0.0000000000e+00 +7.7070252924e+00 7.7070252924e+00 0.0000000000e+00 0.0000e+00 1.0000e+00
       -2 -1    0    0    0  501 -0.0000000000e+00 -0.0000000000e+00 -2.6972959827e+02 2.6972959827e+02 0.0000000000e+00 0.0000e+00 -1.0000e+00
       23  1    1    2    0    0 +0.0000000000e+00 +0.0000000000e+00 -2.6202257298e+02 2.7743662357e+02 9.1188000000e+01 0.0000e+00 1.0000e+00
<mgrwt>
<rscale>  0 0.91188000E+02</rscale>
<asrwt>0</asrwt>
<pdfrwt beam="1">  1        2 0.11856964E-02 0.91188000E+02</pdfrwt>
<pdfrwt beam="2">  1       -2 0.41496853E-01 0.91188000E+02</pdfrwt>
<totfact> 0.54018053E+04</totfact>
</mgrwt>
</event>
<event>
 3      1 +4.2044000e+04 9.11880000e+01 7.54677100e-03 1.30000000e-01
        2 -1    0    0  501    0 +0.0000000000e+00 +0.0000000000e+00 +6.6973379283e+00 6.6973379283e+00 0.0000000000e+00 0.0000e+00 -1.0000e+00
       -2 -1    0    0    0  501 -0.0000000000e+00 -0.0000000000e+00 -3.1039389952e+02 3.1039389952e+02 0.0000000000e+00 0.0000e+00 1.0000e+00
       23  1    1    2    0    0 +0.0000000000e+00 +0.0000000000e+00 -3.0369656160e+02 3.1709123745e+02 9.1188000000e+01 0.0000e+00 -1.0000e+00
<mgrwt>
<rscale>  0 0.91188000E+02</rscale>
<asrwt>0</asrwt>
<pdfrwt beam="1">  1        2 0.10303595E-02 0.91188000E+02</pdfrwt>
<pdfrwt beam="2">  1       -2 0.47752915E-01 0.91188000E+02</pdfrwt>
<totfact> 0.50007278E+04</totfact>
</mgrwt>
</event>
<event>
 3      1 +4.2044000e+04 9.11880000e+01 7.54677100e-03 1.30000000e-01
        1 -1    0    0  501    0 +0.0000000000e+00 +0.0000000000e+00 +1.1946908791e+02 1.1946908791e+02 0.0000000000e+00 0.0000e+00 -1.0000e+00
       -1 -1    0    0    0  501 -0.0000000000e+00 -0.0000000000e+00 -1.7400424431e+01 1.7400424431e+01 0.0000000000e+00 0.0000e+00 1.0000e+00
       23  1    1    2    0    0 +0.0000000000e+00 +0.0000000000e+00 +1.0206866348e+02 1.3686951234e+02 9.1188000000e+01 0.0000e+00 -1.0000e+00
<mgrwt>
<rscale>  0 0.91188000E+02</rscale>
<asrwt>0</asrwt>
<pdfrwt beam="1">  1        1 0.18379859E-01 0.91188000E+02</pdfrwt>
<pdfrwt beam="2">  1       -1 0.26769884E-02 0.91188000E+02</pdfrwt>
<totfact> 0.10762007E+05</totfact>
</mgrwt>
</event>
<event>
 3      1 +4.2044000e+04 9.11880000e+01 7.54677100e-03 1.30000000e-01
       -2 -1    0    0    0  501 -0.0000000000e+00 +0.0000000000e+00 +2.3032262912e+01 2.3032262912e+01 0.0000000000e+00 0.0000e+00 1.0000e+00
        2 -1    0    0  501    0 +0.0000000000e+00 -0.0000000000e+00 -9.0256560718e+01 9.0256560718e+01 0.0000000000e+00 0.0000e+00 -1.0000e+00
       23  1    1    2    0    0 +0.0000000000e+00 -0.0000000000e+00 -6.7224297806e+01 1.1328882363e+02 9.1188000000e+01 0.0000e+00 1.0000e+00
<mgrwt>
<rscale>  0 0.91188000E+02</rscale>
<asrwt>0</asrwt>
<pdfrwt beam="2">  1        2 0.13885625E-01 0.91188000E+02</pdfrwt>
<pdfrwt beam="1">  1       -2 0.35434251E-02 0.91188000E+02</pdfrwt>
<totfact> 0.11891820E+05</totfact>
</mgrwt>
</event>
<event>
 3      1 +4.2044000e+04 9.11880000e+01 7.54677100e-03 1.30000000e-01
        2 -1    0    0  501    0 +0.0000000000e+00 +0.0000000000e+00 +5.1020225442e+02 5.1020225442e+02 0.0000000000e+00 0.0000e+00 -1.0000e+00
       -2 -1    0    0    0  501 -0.0000000000e+00 -0.0000000000e+00 -4.0744877506e+00 4.0744877506e+00 0.0000000000e+00 0.0000e+00 1.0000e+00
       23  1    1    2    0    0 +0.0000000000e+00 +0.0000000000e+00 +5.0612776667e+02 5.1427674217e+02 9.1188000000e+01 0.0000e+00 -1.0000e+00
<mgrwt>
<rscale>  0 0.91188000E+02</rscale>
<asrwt>0</asrwt>
<pdfrwt beam="1">  1        2 0.78492604E-01 0.91188000E+02</pdfrwt>
<pdfrwt beam="2">  1       -2 0.62684467E-03 0.91188000E+02</pdfrwt>
<totfact> 0.21683717E+05</totfact>
</mgrwt>
</event>
<event>
 3      1 +4.2044000e+04 9.11880000e+01 7.54677100e-03 1.30000000e-01
       -1 -1    0    0    0  501 -0.0000000000e+00 +0.0000000000e+00 +3.0659911162e+02 3.0659911162e+02 0.0000000000e+00 0.0000e+00 1.0000e+00
        1 -1    0    0  501    0 +0.0000000000e+00 -0.0000000000e+00 -6.7802311135e+00 6.7802311135e+00 0.0000000000e+00 0.0000e+00 -1.0000e+00
       23  1    1    2    0    0 +0.0000000000e+00 -0.0000000000e+00 +2.9981888051e+02 3.1337934274e+02 9.1188000000e+01 0.0000e+00 1.0000e+00
<mgrwt>
<rscale>  0 0.91188000E+02</rscale>
<asrwt>0</asrwt>
<pdfrwt beam="2">  1        1 0.10431127E-02 0.91188000E+02</pdfrwt>
<pdfrwt beam="1">  1       -1 0.47169083E-01 0.91188000E+02</pdfrwt>
<totfact> 0.60045699E+04</totfact>
</mgrwt>
</event>
<event>
 3      1 +4.2044000e+04 9.11880000e+01 7.54677100e-03 1.30000000e-01
       -2 -1    0    0    0  501 -0.0000000000e+00 +0.0000000000e+00 +2.5446364007e+00 2.5446364007e+00 0.0000000000e+00 0.0000e+00 1.0000e+00
        2 -1    0    0  501    0 +0.0000000000e+00 -0.0000000000e+00 -8.1693904695e+02 8.1693904695e+02 0.0000000000e+00 0.0000e+00 -1.0000e+00
       23  1    1    2    0    0 +0.0000000000e+00 -0.0000000000e+00 -8.1439441055e+02 8.1948368335e+02 9.1188000000e+01 0.0000e+00 1.0000e+00
<mgrwt>
<rscale>  0 0.91188000E+02</rscale>
<asrwt>0</asrwt>
<pdfrwt beam="2">  1        2 0.12568302E+00 0.91188000E+02</pdfrwt>
<pdfrwt beam="1">  1       -2 0.39148224E-03 0.91188000E+02</pdfrwt>
<totfact> 0.24453310E+05</totfact>
</mgrwt>
</event>
<event>
 3      1 +4.2044000e+04 9.11880000e+01 7.54677100e-03 1.30000000e-01
       -2 -1    0    0    0  501 -0.0000000000e+00 +0.0000000000e+00 +4.3217784050e+01 4.3217784050e+01 0.0000000000e+00 0.0000e+00 1.0000e+00
        2 -1    0    0  501    0 +0.0000000000e+00 -0.0000000000e+00 -4.8100865921e+01 4.8100865921e+01 0.0000000000e+00 0.0000e+00 -1.0000e+00
       23  1    1    2    0    0 +0.0000000000e+00 -0.0000000000e+00 -4.8830818712e+00 9.1318649971e+01 9.1188000000e+01 0.0000e+00 1.0000e+00
<mgrwt>
<rscale>  0 0.91188000E+02</rscale>
<asrwt>0</asrwt>
<pdfrwt beam="2">  1        2 0.74001332E-02 0.91188000E+02</pdfrwt>
<pdfrwt beam="1">  1       -2 0.66488899E-02 0.91188000E+02</pdfrwt>
<totfact> 0.10002567E+05</totfact>
</mgrwt>
</event>
<event>
 3      1 +4.2044000e+04 9.11880000e+01 7.54677100e-03 1.30000000e-01
        1 -1    0    0  501    0 +0.0000000000e+00 +0.0000000000e+00 +6.9035677330e+02 6.9035677330e+02 0.0000000000e+00 0.0000e+00 -1.0000e+00
       -1 -1    0    0    0  501 -0.0000000000e+00 -0.0000000000e+00 -3.0112152388e+00 3.0112152388e+00 0.0000000000e+00 0.0000e+00 1.0000e+00
       23  1    1    2    0    0 +0.0000000000e+00 +0.0000000000e+00 +6.8734555806e+02 6.9336798854e+02 9.1188000000e+01 0.0000e+00 -1.0000e+00
<mgrwt>
<rscale>  0 0.91188000E+02</rscale>
<asrwt>0</asrwt>
<pdfrwt beam="1">  1        1 0.10620861E+00 0.91188000E+02</pdfrwt>
<pdfrwt beam="2">  1       -1 0.46326443E-03 0.91188000E+02</pdfrwt>
<totfact> 0.14214028E+05</totfact>
</mgrwt>
</event>
<event>
 3      1 +4.2044000e+04 9.11880000e+01 7.54677100e-03 1.30000000e-01
        3 -1    0    0  501    0 +0.0000000000e+00 +0.0000000000e+00 +6.4723353118e+02 6.4723353118e+02 0.0000000000e+00 0.0000e+00 -1.0000e+00
       -3 -1    0    0    0  501 -0.0000000000e+00 -0.0000000000e+00 -3.2118435400e+00 3.2118435400e+00 0.0000000000e+00 0.0000e+00 1.0000e+00
       23  1    1    2    0    0 +0.0000000000e+00 +0.0000000000e+00 +6.4402168764e+02 6.5044537472e+02 9.1188000000e+01 0.0000e+00 -1.0000e+00
<mgrwt>
<rscale>  0 0.91188000E+02</rscale>
<asrwt>0</asrwt>
<pdfrwt beam="1">  1        3 0.99574285E-01 0.91188000E+02</pdfrwt>
<pdfrwt beam="2">  1       -3 0.49413029E-03 0.91188000E+02</pdfrwt>
<totfact> 0.14772225E+04</totfact>
</mgrwt>
</event>
<event>
 3      1 +4.2044000e+04 9.11880000e+01 7.54677100e-03 1.30000000e-01
        1 -1    0    0  501    0 +0.0000000000e+00 +0.0000000000e+00 +2.6178015424e+01 2.6178015424e+01 0.0000000000e+00 0.0000e+00 -1.0000e+00
       -1 -1    0    0    0  501 -0.0000000000e+00 -0.0000000000e+00 -7.9410635310e+01 7.9410635310e+01 0.0000000000e+00 0.0000e+00 1.0000e+00
       23  1    1    2    0    0 +0.0000000000e+00 +0.0000000000e+00 -5.3232619886e+01 1.0558865073e+02 9.1188000000e+01 0.0000e+00 -1.0000e+00
<mgrwt>
<rscale>  0 0.91188000E+02</rscale>
<asrwt>0</asrwt>
<pdfrwt beam="1">  1        1 0.40273870E-02 0.91188000E+02</pdfrwt>
<pdfrwt beam="2">  1       -1 0.12217021E-01 0.91188000E+02</pdfrwt>
<totfact> 0.84729807E+04</totfact>
</mgrwt>
</event>
<event>
 3      1 +4.2044000e+04 9.11880000e+01 7.54677100e-03 1.30000000e-01
       -1 -1    0    0    0  501 -0.0000000000e+00 +0.0000000000e+00 +2.7643332151e+00 2.7643332151e+00 0.0000000000e+00 0.0000e+00 1.0000e+00
        1 -1    0    0  501    0 +0.0000000000e+00 -0.0000000000e+00 -7.5201239295e+02 7.5201239295e+02 0.0000000000e+00 0.0000e+00 -1.0000e+00
       23  1    1    2    0    0 +0.0000000000e+00 -0.0000000000e+00 -7.4924805973e+02 7.5477672616e+02 9.1188000000e+01 0.0000e+00 1.0000e+00
<mgrwt>
<rscale>  0 0.91188000E+02</rscale>
<asrwt>0</asrwt>
<pdfrwt beam="2">  1        1 0.11569427E+00 0.91188000E+02</pdfrwt>
<pdfrwt beam="1">  1       -1 0.42528183E-03 0.91188000E+02</pdfrwt>
<totfact> 0.14184312E+05</totfact>
</mgrwt>
</event>
<event>
 3      1 +4.2044000e+04 9.11880000e+01 7.54677100e-03 1.30000000e-01
        2 -1    0    0  501    0 +0.0000000000e+00 +0.0000000000e+00 +2.5086735920e+02 2.5086735920e+02 0.0000000000e+00 0.0000e+00 -1.0000e+00
       -2 -1    0    0    0  501 -0.0000000000e+00 -0.0000000000e+00 -8.2865018497e+00 8.2865018497e+00 0.0000000000e+00 0.0000e+00 1.0000e+00
       23  1    1    2    0    0 +0.0000000000e+00 +0.0000000000e+00 +2.4258085735e+02 2.5915386105e+02 9.1188000000e+01 0.0000e+00 -1.0000e+00
<mgrwt>
<rscale>  0 0.91188000E+02</rscale>
<asrwt>0</asrwt>
<pdfrwt beam="1">  1        2 0.38594972E-01 0.91188000E+02</pdfrwt>
<pdfrwt beam="2">  1       -2 0.12748466E-02 0.91188000E+02</pdfrwt>
<totfact> 0.16802060E+05</totfact>
</mgrwt>
</event>
<event>
 3      1 +4.2044000e+04 9.11880000e+01 7.54677100e-03 1.30000000e-01
        2 -1    0    0  501    0 +0.0000000000e+00 +0.0000000000e+00 +2.4619888632e+00 2.4619888632e+00 0.0000000000e+00 0.0000e+00 -1.0000e+00
       -2 -1    0    0    0  501 -0.0000000000e+00 -0.0000000000e+00 -8.4436321670e+02 8.4436321670e+02 0.0000000000e+00 0.0000e+00 1.0000e+00
       23  1    1    2    0    0 +0.0000000000e+00 +0.0000000000e+00 -8.4190122784e+02 8.4682520556e+02 9.1188000000e+01 0.0000e+00 -1.0000e+00
<mgrwt>
<rscale>  0 0.91188000E+02</rscale>
<asrwt>0</asrwt>
<pdfrwt beam="1">  1        2 0.37876741E-03 0.91188000E+02</pdfrwt>
<pdfrwt beam="2">  1       -2 0.12990207E+00 0.91188000E+02</pdfrwt>
<totfact> 0.22537783E+04</totfact>
</mgrwt>
</event>
<event>
 3      1 +4.2044000e+04 9.11880000e+01 7.54677100e-03 1.30000000e-01
       -1 -1    0    0    0  501 -0.0000000000e+00 +0.0000000000e+00 +8.3102794355e+01 8.3102794355e+01 0.0000000000e+00 0.0000e+00 1.0000e+00
        1 -1    0    0  501    0 +0.0000000000e+00 -0.0000000000e+00 -2.5014957104e+01 2.5014957104e+01 0.0000000000e+00 0.0000e+00 -1.0000e+00
       23  1    1    2    0    0 +0.0000000000e+00 -0.0000000000e+00 +5.8087837251e+01 1.0811775146e+02 9.1188000000e+01 0.0000e+00 1.0000e+00
<mgrwt>
<rscale>  0 0.91188000E+02</rscale>
<asrwt>0</asrwt>
<pdfrwt beam="2">  1        1 0.38484550E-02 0.91188000E+02</pdfrwt>
<pdfrwt beam="1">  1       -1 0.12785045E-01 0.91188000E+02</pdfrwt>
<totfact> 0.84077497E+04</totfact>
</mgrwt>
</event>
<event>
 3      1 +4.2044000e+04 9.11880000e+01 7.54677100e-03 1.30000000e-01
        2 -1    0    0  501    0 +0.0000000000e+00 +0.0000000000e+00 +4.2430818107e+02 4.2430818107e+02 0.0000000000e+00 0.0000e+00 -1.0000e+00
       -2 -1    0    0    0  501 -0.0000000000e+00 -0.0000000000e+00 -4.8992994450e+00 4.8992994450e+00 0.0000000000e+00 0.0000e+00 1.0000e+00
       23  1    1    2    0    0 +0.0000000000e+00 +0.0000000000e+00 +4.1940888162e+02 4.2920748051e+02 9.1188000000e+01 0.0000e+00 -1.0000e+00
<mgrwt>
<rscale>  0 0.91188000E+02</rscale>
<asrwt>0</asrwt>
<pdfrwt beam="1">  1        2 0.65278153E-01 0.91188000E+02</pdfrwt>
<pdfrwt beam="2">  1       -2 0.75373871E-03 0.91188000E+02</pdfrwt>
<totfact> 0.20377450E+05</totfact>
</mgrwt>
</event>
<event>
 3      1 +4.2044000e+04 9.11880000e+01 7.54677100e-03 1.30000000e-01
        3 -1    0    0  501    0 +0.0000000000e+00 +0.0000000000e+00 +1.6153381269e+02 1.6153381269e+02 0.0000000000e+00 0.0000e+00 -1.0000e+00
       -3 -1    0    0    0  501 -0.0000000000e+00 -0.0000000000e+00 -1.2869211724e+01 1.2869211724e+01 0.0000000000e+00 0.0000e+00 1.0000e+00
       23  1    1    2    0    0 +0.0000000000e+00 +0.0000000000e+00 +1.4866460096e+02 1.7440302441e+02 9.1188000000e+01 0.0000e+00 -1.0000e+00
<mgrwt>
<rscale>  0 0.91188000E+02</rscale>
<asrwt>0</asrwt>
<pdfrwt beam="1">  1        3 0.24851354E-01 0.91188000E+02</pdfrwt>
<pdfrwt beam="2">  1       -3 0.19798788E-02 0.91188000E+02</pdfrwt>
<totfact> 0.29867579E+04</totfact>
</mgrwt>
</event>
<event>
 3      1 +4.2044000e+04 9.11880000e+01 7.54677100e-03 1.30000000e-01
        1 -1    0    0  501    0 +0.0000000000e+00 +0.0000000000e+00 +1.9341505570e+01 1.9341505570e+01 0.0000000000e+00 0.0000e+00 -1.0000e+00
       -1 -1    0    0    0  501 -0.0000000000e+00 -0.0000000000e+00 -1.0747937013e+02 1.0747937013e+02 0.0000000000e+00 0.0000e+00 1.0000e+00
       23  1    1    2    0    0 +0.0000000000e+00 +0.0000000000e+00 -8.8137864560e+01 1.2682087570e+02 9.1188000000e+01 0.0000e+00 -1.0000e+00
<mgrwt>
<rscale>  0 0.91188000E+02</rscale>
<asrwt>0</asrwt>
<pdfrwt beam="1">  1        1 0.29756163E-02 0.91188000E+02</pdfrwt>
<pdfrwt beam="2">  1       -1 0.16535288E-01 0.91188000E+02</pdfrwt>
<totfact> 0.80241913E+04</totfact>
</mgrwt>
</event>
<event>
 3      1 +4.2044000e+04 9.11880000e+01 7.54677100e-03 1.30000000e-01
       -1 -1    0    0    0  501 -0.0000000000e+00 +0.0000000000e+00 +1.3811701789e+02 1.3811701789e+02 0.0000000000e+00 0.0000e+00 1.0000e+00
        1 -1    0    0  501    0 +0.0000000000e+00 -0.0000000000e+00 -1.5051098465e+01 1.5051098465e+01 0.0000000000e+00 0.0000e+00 -1.0000e+00
       23  1    1    2    0    0 +0.0000000000e+00 -0.0000000000e+00 +1.2306591943e+02 1.5316811636e+02 9.1188000000e+01 0.0000e+00 1.0000e+00
<mgrwt>
<rscale>  0 0.91188000E+02</rscale>
<asrwt>0</asrwt>
<pdfrwt beam="2">  1        1 0.23155537E-02 0.91188000E+02</pdfrwt>
<pdfrwt beam="1">  1       -1 0.21248771E-01 0.91188000E+02</pdfrwt>
<totfact> 0.76185980E+04</totfact>
</mgrwt>
</event>
<event>
 3      1 +4.2044000e+04 9.11880000e+01 7.54677100e-03 1.30000000e-01
       -2 -1    0    0    0  501 -0.0000000000e+00 +0.0000000000e+00 +6.5044662258e+00 6.5044662258e+00 0.0000000000e+00 0.0000e+00 1.0000e+00
        2 -1    0    0  501    0 +0.0000000000e+00 -0.0000000000e+00 -3.1959776004e+02 3.1959776004e+02 0.0000000000e+00 0.0000e+00 -1.0000e+00
       23  1    1    2    0    0 +0.0000000000e+00 -0.0000000000e+00 -3.1309329381e+02 3.2610222626e+02 9.1188000000e+01 0.0000e+00 1.0000e+00
<mgrwt>
<rscale>  0 0.91188000E+02</rscale>
<asrwt>0</asrwt>
<pdfrwt beam="2">  1        2 0.49168881E-01 0.91188000E+02</pdfrwt>
<pdfrwt beam="1">  1       -2 0.10006872E-02 0.91188000E+02</pdfrwt>
<totfact> 0.18387428E+05</totfact>
</mgrwt>
</event>
<event>
 3      1 +4.2044000e+04 9.11880000e+01 7.54677100e-03 1.30000000e-01
        1 -1    0    0  501    0 +0.0000000000e+00 +0.0000000000e+00 +5.1703063443e+00 5.1703063443e+00 0.0000000000e+00 0.0000e+00 -1.0000e+00
       -1 -1    0    0    0  501 -0.0000000000e+00 -0.0000000000e+00 -4.0206763344e+02 4.0206763344e+02 0.0000000000e+00 0.0000e+00 1.0000e+00
       23  1    1    2    0    0 +0.0000000000e+00 +0.0000000000e+00 -3.9689732710e+02 4.0723793978e+02 9.1188000000e+01 0.0000e+00 -1.0000e+00
<mgrwt>
<rscale>  0 0.91188000E+02</rscale>
<asrwt>0</asrwt>
<pdfrwt beam="1">  1        1 0.79543171E-03 0.91188000E+02</pdfrwt>
<pdfrwt beam="2">  1       -1 0.61856562E-01 0.91188000E+02</pdfrwt>
<totfact> 0.53133833E+04</totfact>
</mgrwt>
</event>
<event>
 3      1 +4.2044000e+04 9.11880000e+01 7.54677100e-03 1.30000000e-01
       -2 -1    0    0    0  501 -0.0000000000e+00 +0.0000000000e+00 +3.1265901980e+00 3.1265901980e+00 0.0000000000e+00 0.0000e+00 -1.0000e+00
        2 -1    0    0  501    0 +0.0000000000e+00 -0.0000000000e+00 -6.6488177356e+02 6.6488177356e+02 0.0000000000e+00 0.0000e+00 1.0000e+00
       23  1    1    2    0    0 +0.0000000000e+00 -0.0000000000e+00 -6.6175518336e+02 6.6800836375e+02 9.1188000000e+01 0.0000e+00 -1.0000e+00
<mgrwt>
<rscale>  0 0.91188000E+02</rscale>
<asrwt>0</asrwt>
<pdfrwt beam="2">  1        2 0.10228946E+00 0.91188000E+02</pdfrwt>
<pdfrwt beam="1">  1       -2 0.48101409E-03 0.91188000E+02</pdfrwt>
<totfact> 0.23412839E+05</totfact>
</mgrwt>
</event>
<event>
 3      1 +4.2044000e+04 9.11880000e+01 7.54677100e-03 1.30000000e-01
        2 -1    0    0  501    0 +0.0000000000e+00 +0.0000000000e+00 +1.0847223478e+03 1.0847223478e+03 0.0000000000e+00 0.0000e+00 -1.0000e+00
       -2 -1    0    0    0  501 -0.0000000000e+00 -0.0000000000e+00 -1.9164469509e+00 1.9164469509e+00 0.0000000000e+00 0.0000e+00 1.0000e+00
       23  1    1    2    0    0 +0.0000000000e+00 +0.0000000000e+00 +1.0828059008e+03 1.0866387947e+03 9.1188000000e+01 0.0000e+00 -1.0000e+00
<mgrwt>
<rscale>  0 0.91188000E+02</rscale>
<asrwt>0</asrwt>
<pdfrwt beam="1">  1        2 0.16687987E+00 0.91188000E+02</pdfrwt>
<pdfrwt beam="2">  1       -2 0.29483886E-03 0.91188000E+02</pdfrwt>
<totfact> 0.25019639E+05</totfact>
</mgrwt>
</event>
<event>
 3      1 +4.2044000e+04 9.11880000e+01 7.54677100e-03 1.30000000e-01
       -1 -1    0    0    0  501 -0.0000000000e+00 +0.0000000000e+00 +1.2165372768e+01 1.2165372768e+01 0.0000000000e+00 0.0000e+00 1.0000e+00
        1 -1    0    0  501    0 +0.0000000000e+00 -0.0000000000e+00 -1.7087950165e+02 1.7087950165e+02 0.0000000000e+00 0.0000e+00 -1.0000e+00
       23  1    1    2    0    0 +0.0000000000e+00 -0.0000000000e+00 -1.5871412888e+02 1.8304487442e+02 9.1188000000e+01 0.0000e+00 1.0000e+00
<mgrwt>
<rscale>  0 0.91188000E+02</rscale>
<asrwt>0</asrwt>
<pdfrwt beam="2">  1        1 0.26289154E-01 0.91188000E+02</pdfrwt>
<pdfrwt beam="1">  1       -1 0.18715958E-02 0.91188000E+02</pdfrwt>
<totfact> 0.11484929E+05</totfact>
</mgrwt>
</event>
<event>
 3      1 +4.2044000e+04 9.11880000e+01 7.54677100e-03 1.30000000e-01
       -1 -1    0    0    0  501 -0.0000000000e+00 +0.0000000000e+00 +2.2196370709e+00 2.2196370709e+00 0.0000000000e+00 0.0000e+00 1.0000e+00
        1 -1    0    0  501    0 +0.0000000000e+00 -0.0000000000e+00 -9.3655528791e+02 9.3655528791e+02 0.0000000000e+00 0.0000e+00 -1.0000e+00
       23  1    1    2    0    0 +0.0000000000e+00 -0.0000000000e+00 -9.3433565084e+02 9.3877492498e+02 9.1188000000e+01 0.0000e+00 1.0000e+00
<mgrwt>
<rscale>  0 0.91188000E+02</rscale>
<asrwt>0</asrwt>
<pdfrwt beam="2">  1        1 0.14408525E+00 0.91188000E+02</pdfrwt>
<pdfrwt beam="1">  1       -1 0.34148306E-03 0.91188000E+02</pdfrwt>
<totfact> 0.13808561E+05</totfact>
</mgrwt>
</event>
<event>
 3      1 +4.2044000e+04 9.11880000e+01 7.54677100e-03 1.30000000e-01
        2 -1    0    0  501    0 +0.0000000000e+00 +0.0000000000e+00 +2.3482735328e+03 2.3482735328e+03 0.0000000000e+00 0.0000e+00 1.0000e+00
       -2 -1    0    0    0  501 -0.0000000000e+00 -0.0000000000e+00 -8.8525157182e-01 8.8525157182e-01 0.0000000000e+00 0.0000e+00 -1.0000e+00
       23  1    1    2    0    0 +0.0000000000e+00 +0.0000000000e+00 +2.3473882813e+03 2.3491587844e+03 9.1188000000e+01 0.0000e+00 1.0000e+00
<mgrwt>
<rscale>  0 0.91188000E+02</rscale>
<asrwt>0</asrwt>
<pdfrwt beam="1">  1        2 0.36126786E+00 0.91188000E+02</pdfrwt>
<pdfrwt beam="2">  1       -2 0.13619443E-03 0.91188000E+02</pdfrwt>
<totfact> 0.16336802E+05</totfact>
</mgrwt>
</event>
<event>
 3      1 +4.2044000e+04 9.11880000e+01 7.54677100e-03 1.30000000e-01
        2 -1    0    0  501    0 +0.0000000000e+00 +0.0000000000e+00 +1.5228325997e+03 1.5228325997e+03 0.0000000000e+00 0.0000e+00 -1.0000e+00
       -2 -1    0    0    0  501 -0.0000000000e+00 -0.0000000000e+00 -1.3650960956e+00 1.3650960956e+00 0.0000000000e+00 0.0000e+00 1.0000e+00
       23  1    1    2    0    0 +0.0000000000e+00 +0.0000000000e+00 +1.5214675036e+03 1.5241976957e+03 9.1188000000e+01 0.0000e+00 -1.0000e+00
<mgrwt>
<rscale>  0 0.91188000E+02</rscale>
<asrwt>0</asrwt>
<pdfrwt beam="1">  1        2 0.23428058E+00 0.91188000E+02</pdfrwt>
<pdfrwt beam="2">  1       -2 0.21001600E-03 0.91188000E+02</pdfrwt>
<totfact> 0.23450550E+05</totfact>
</mgrwt>
</event>
<event>
 3      1 +4.2044000e+04 9.11880000e+01 7.54677100e-03 1.30000000e-01
        2 -1    0    0  501    0 +0.0000000000e+00 +0.0000000000e+00 +1.9229288991e+02 1.9229288991e+02 0.0000000000e+00 0.0000e+00 1.0000e+00
       -2 -1    0    0    0  501 -0.0000000000e+00 -0.0000000000e+00 -1.0810658870e+01 1.0810658870e+01 0.0000000000e+00 0.0000e+00 -1.0000e+00
       23  1    1    2    0    0 +0.0000000000e+00 +0.0000000000e+00 +1.8148223104e+02 2.0310354878e+02 9.1188000000e+01 0.0000e+00 1.0000e+00
<mgrwt>
<rscale>  0 0.91188000E+02</rscale>
<asrwt>0</asrwt>
<pdfrwt beam="1">  1        2 0.29583519E-01 0.91188000E+02</pdfrwt>
<pdfrwt beam="2">  1       -2 0.16631784E-02 0.91188000E+02</pdfrwt>
<totfact> 0.15245342E+05</totfact>
</mgrwt>
</event>
<event>
 3      1 +4.2044000e+04 9.11880000e+01 7.54677100e-03 1.30000000e-01
        2 -1    0    0  501    0 +0.0000000000e+00 +0.0000000000e+00 +2.0939998621e+02 2.0939998621e+02 0.0000000000e+00 0.0000e+00 -1.0000e+00
       -2 -1    0    0    0  501 -0.0000000000e+00 -0.0000000000e+00 -9.9274736050e+00 9.9274736050e+00 0.0000000000e+00 0.0000e+00 1.0000e+00
       23  1    1    2    0    0 +0.0000000000e+00 +0.0000000000e+00 +1.9947251261e+02 2.1932745982e+02 9.1188000000e+01 0.0000e+00 -1.0000e+00
<mgrwt>
<rscale>  0 0.91188000E+02</rscale>
<asrwt>0</asrwt>
<pdfrwt beam="1">  1        2 0.32215379E-01 0.91188000E+02</pdfrwt>
<pdfrwt beam="2">  1       -2 0.15273038E-02 0.91188000E+02</pdfrwt>
<totfact> 0.15722700E+05</totfact>
</mgrwt>
</event>
<event>
 3      1 +4.2044000e+04 9.11880000e+01 7.54677100e-03 1.30000000e-01
        2 -1    0    0  501    0 +0.0000000000e+00 +0.0000000000e+00 +2.5886333226e+03 2.5886333226e+03 0.0000000000e+00 0.0000e+00 -1.0000e+00
       -2 -1    0    0    0  501 -0.0000000000e+00 -0.0000000000e+00 -8.0305418998e-01 8.0305418998e-01 0.0000000000e+00 0.0000e+00 1.0000e+00
       23  1    1    2    0    0 +0.0000000000e+00 +0.0000000000e+00 +2.5878302684e+03 2.5894363768e+03 9.1188000000e+01 0.0000e+00 -1.0000e+00
<mgrwt>
<rscale>  0 0.91188000E+02</rscale>
<asrwt>0</asrwt>
<pdfrwt beam="1">  1        2 0.39824460E+00 0.91188000E+02</pdfrwt>
<pdfrwt beam="2">  1       -2 0.12354887E-03 0.91188000E+02</pdfrwt>
<totfact> 0.13989033E+05</totfact>
</mgrwt>
</event>
<event>
 3      1 +4.2044000e+04 9.11880000e+01 7.54677100e-03 1.30000000e-01
        2 -1    0    0  501    0 +0.0000000000e+00 +0.0000000000e+00 +1.6827227941e+03 1.6827227941e+03 0.0000000000e+00 0.0000e+00 -1.0000e+00
       -2 -1    0    0    0  501 -0.0000000000e+00 -0.0000000000e+00 -1.2353863888e+00 1.2353863888e+00 0.0000000000e+00 0.0000e+00 1.0000e+00
       23  1    1    2    0    0 +0.0000000000e+00 +0.0000000000e+00 +1.6814874077e+03 1.6839581805e+03 9.1188000000e+01 0.0000e+00 -1.0000e+00
<mgrwt>
<rscale>  0 0.91188000E+02</rscale>
<asrwt>0</asrwt>
<pdfrwt beam="1">  1        2 0.25887860E+00 0.91188000E+02</pdfrwt>
<pdfrwt beam="2">  1       -2 0.19006079E-03 0.91188000E+02</pdfrwt>
<totfact> 0.22352504E+05</totfact>
</mgrwt>
</event>
<event>
 3      1 +4.2044000e+04 9.11880000e+01 7.54677100e-03 1.30000000e-01
        1 -1    0    0  501    0 +0.0000000000e+00 +0.0000000000e+00 +7.4971310092e+01 7.4971310092e+01 0.0000000000e+00 0.0000e+00 -1.0000e+00
       -1 -1    0    0    0  501 -0.0000000000e+00 -0.0000000000e+00 -2.7728111373e+01 2.7728111373e+01 0.0000000000e+00 0.0000e+00 1.0000e+00
       23  1    1    2    0    0 +0.0000000000e+00 +0.0000000000e+00 +4.7243198719e+01 1.0269942146e+02 9.1188000000e+01 0.0000e+00 -1.0000e+00
<mgrwt>
<rscale>  0 0.91188000E+02</rscale>
<asrwt>0</asrwt>
<pdfrwt beam="1">  1        1 0.11534048E-01 0.91188000E+02</pdfrwt>
<pdfrwt beam="2">  1       -1 0.42658633E-02 0.91188000E+02</pdfrwt>
<totfact> 0.99689719E+04</totfact>
</mgrwt>
</event>
<event>
 3      1 +4.2044000e+04 9.11880000e+01 7.54677100e-03 1.30000000e-01
        3 -1    0    0  501    0 +0.0000000000e+00 +0.0000000000e+00 +6.7695444798e+01 6.7695444798e+01 0.0000000000e+00 0.0000e+00 -1.0000e+00
       -3 -1    0    0    0  501 -0.0000000000e+00 -0.0000000000e+00 -3.0708311943e+01 3.0708311943e+01 0.0000000000e+00 0.0000e+00 1.0000e+00
       23  1    1    2    0    0 +0.0000000000e+00 +0.0000000000e+00 +3.6987132855e+01 9.8403756741e+01 9.1188000000e+01 0.0000e+00 -1.0000e+00
<mgrwt>
<rscale>  0 0.91188000E+02</rscale>
<asrwt>0</asrwt>
<pdfrwt beam="1">  1        3 0.10414684E-01 0.91188000E+02</pdfrwt>
<pdfrwt beam="2">  1       -3 0.47243557E-02 0.91188000E+02</pdfrwt>
<totfact> 0.34778165E+04</totfact>
</mgrwt>
</event>
<event>
 3      1 +4.2044000e+04 9.11880000e+01 7.54677100e-03 1.30000000e-01
       -1 -1    0    0    0  501 -0.0000000000e+00 +0.0000000000e+00 +7.6994456591e+00 7.6994456591e+00 0.0000000000e+00 0.0000e+00 1.0000e+00
        1 -1    0    0  501    0 +0.0000000000e+00 -0.0000000000e+00 -2.6999513056e+02 2.6999513056e+02 0.0000000000e+00 0.0000e+00 -1.0000e+00
       23  1    1    2    0    0 +0.0000000000e+00 -0.0000000000e+00 -2.6229568490e+02 2.7769457622e+02 9.1188000000e+01 0.0000e+00 1.0000e+00
<mgrwt>
<rscale>  0 0.91188000E+02</rscale>
<asrwt>0</asrwt>
<pdfrwt beam="2">  1        1 0.41537712E-01 0.91188000E+02</pdfrwt>
<pdfrwt beam="1">  1       -1 0.11845301E-02 0.91188000E+02</pdfrwt>
<totfact> 0.12550085E+05</totfact>
</mgrwt>
</event>
<event>
 3      1 +4.2044000e+04 9.11880000e+01 7.54677100e-03 1.30000000e-01
       -4 -1    0    0    0  501 -0.0000000000e+00 +0.0000000000e+00 +8.2030396790e+01 8.2030396790e+01 0.0000000000e+00 0.0000e+00 -1.0000e+00
        4 -1    0    0  501    0 +0.0000000000e+00 -0.0000000000e+00 -2.5341981965e+01 2.5341981965e+01 0.0000000000e+00 0.0000e+00 1.0000e+00
       23  1    1    2    0    0 +0.0000000000e+00 -0.0000000000e+00 +5.6688414825e+01 1.0737237875e+02 9.1188000000e+01 0.0000e+00 -1.0000e+00
<mgrwt>
<rscale>  0 0.91188000E+02</rscale>
<asrwt>0</asrwt>
<pdfrwt beam="2">  1        4 0.38987665E-02 0.91188000E+02</pdfrwt>
<pdfrwt beam="1">  1       -4 0.12620061E-01 0.91188000E+02</pdfrwt>
<totfact> 0.26000744E+04</totfact>
</mgrwt>
</event>
<event>
 3      1 +4.2044000e+04 9.11880000e+01 7.54677100e-03 1.30000000e-01
       -1 -1    0    0    0  501 -0.0000000000e+00 +0.0000000000e+00 +1.4969628222e+00 1.4969628222e+00 0.0000000000e+00 0.0000e+00 1.0000e+00
        1 -1    0    0  501    0 +0.0000000000e+00 -0.0000000000e+00 -1.3886870169e+03 1.3886870169e+03 0.0000000000e+00 0.0000e+00 -1.0000e+00
       23  1    1    2    0    0 +0.0000000000e+00 -0.0000000000e+00 -1.3871900541e+03 1.3901839797e+03 9.1188000000e+01 0.0000e+00 1.0000e+00
<mgrwt>
<rscale>  0 0.91188000E+02</rscale>
<asrwt>0</asrwt>
<pdfrwt beam="2">  1        1 0.21364470E+00 0.91188000E+02</pdfrwt>
<pdfrwt beam="1">  1       -1 0.23030138E-03 0.91188000E+02</pdfrwt>
<totfact> 0.11704807E+05</totfact>
</mgrwt>
</event>
<event>
 3      1 +4.2044000e+04 9.11880000e+01 7.54677100e-03 1.30000000e-01
       -1 -1    0    0    0  501 -0.0000000000e+00 +0.0000000000e+00 +1.1402566045e+01 1.1402566045e+01 0.0000000000e+00 0.0000e+00 1.0000e+00
        1 -1    0    0  501    0 +0.0000000000e+00 -0.0000000000e+00 -1.8231096648e+02 1.8231096648e+02 0.0000000000e+00 0.0000e+00 -1.0000e+00
       23  1    1    2    0    0 +0.0000000000e+00 -0.0000000000e+00 -1.7090840043e+02 1.9371353252e+02 9.1188000000e+01 0.0000e+00 1.0000e+00
<mgrwt>
<rscale>  0 0.91188000E+02</rscale>
<asrwt>0</asrwt>
<pdfrwt beam="2">  1        1 0.28047840E-01 0.91188000E+02</pdfrwt>
<pdfrwt beam="1">  1       -1 0.17542410E-02 0.91188000E+02</pdfrwt>
<totfact> 0.11627163E+05</totfact>
</mgrwt>
</event>
<event>
 3      1 +4.2044000e+04 9.11880000e+01 7.54677100e-03 1.30000000e-01
        1 -1    0    0  501    0 +0.0000000000e+00 +0.0000000000e+00 +3.5026790540e+02 3.5026790540e+02 0.0000000000e+00 0.0000e+00 1.0000e+00
       -1 -1    0    0    0  501 -0.0000000000e+00 -0.0000000000e+00 -5.9349223950e+00 5.9349223950e+00 0.0000000000e+00 0.0000e+00 -1.0000e+00
       23  1    1    2    0    0 +0.0000000000e+00 +0.0000000000e+00 +3.4433298300e+02 3.5620282779e+02 9.1188000000e+01 0.0000e+00 1.0000e+00
<mgrwt>
<rscale>  0 0.91188000E+02</rscale>
<asrwt>0</asrwt>
<pdfrwt beam="1">  1        1 0.53887354E-01 0.91188000E+02</pdfrwt>
<pdfrwt beam="2">  1       -1 0.91306526E-03 0.91188000E+02</pdfrwt>
<totfact> 0.13180757E+05</totfact>
</mgrwt>
</event>
<event>
 3      1 +4.2044000e+04 9.11880000e+01 7.54677100e-03 1.30000000e-01
       -2 -1    0    0    0  501 -0.0000000000e+00 +0.0000000000e+00 +6.5002494520e+01 6.5002494520e+01 0.0000000000e+00 0.0000e+00 1.0000e+00
        2 -1    0    0  501    0 +0.0000000000e+00 -0.0000000000e+00 -3.1980508615e+01 3.1980508615e+01 0.0000000000e+00 0.0000e+00 -1.0000e+00
       23  1    1    2    0    0 +0.0000000000e+00 -0.0000000000e+00 +3.3021985905e+01 9.6983003135e+01 9.1188000000e+01 0.0000e+00 1.0000e+00
<mgrwt>
<rscale>  0 0.91188000E+02</rscale>
<asrwt>0</asrwt>
<pdfrwt beam="2">  1        2 0.49200783E-02 0.91188000E+02</pdfrwt>
<pdfrwt beam="1">  1       -2 0.10000384E-01 0.91188000E+02</pdfrwt>
<totfact> 0.89948014E+04</totfact>
</mgrwt>
</event>
<event>
 3      1 +4.2044000e+04 9.11880000e+01 7.54677100e-03 1.30000000e-01
        2 -1    0    0  501    0 +0.0000000000e+00 +0.0000000000e+00 +1.7760741420e+02 1.7760741420e+02 0.0000000000e+00 0.0000e+00 -1.0000e+00
       -2 -1    0    0    0  501 -0.0000000000e+00 -0.0000000000e+00 -1.1704538605e+01 1.1704538605e+01 0.0000000000e+00 0.0000e+00 1.0000e+00
       23  1    1    2    0    0 +0.0000000000e+00 +0.0000000000e+00 +1.6590287559e+02 1.8931195280e+02 9.1188000000e+01 0.0000e+00 -1.0000e+00
<mgrwt>
<rscale>  0 0.91188000E+02</rscale>
<asrwt>0</asrwt>
<pdfrwt beam="1">  1        2 0.27324216E-01 0.91188000E+02</pdfrwt>
<pdfrwt beam="2">  1       -2 0.18006984E-02 0.91188000E+02</pdfrwt>
<totfact> 0.14819237E+05</totfact>
</mgrwt>
</event>
<event>
 3      1 +4.2044000e+04 9.11880000e+01 7.54677100e-03 1.30000000e-01
        2 -1    0    0  501    0 +0.0000000000e+00 +0.0000000000e+00 +2.7988139202e+02 2.7988139202e+02 0.0000000000e+00 0.0000e+00 -1.0000e+00
       -2 -1    0    0    0  501 -0.0000000000e+00 -0.0000000000e+00 -7.4274778363e+00 7.4274778363e+00 0.0000000000e+00 0.0000e+00 1.0000e+00
       23  1    1    2    0    0 +0.0000000000e+00 +0.0000000000e+00 +2.7245391418e+02 2.8730886985e+02 9.1188000000e+01 0.0000e+00 -1.0000e+00
<mgrwt>
<rscale>  0 0.91188000E+02</rscale>
<asrwt>0</asrwt>
<pdfrwt beam="1">  1        2 0.43058668E-01 0.91188000E+02</pdfrwt>
<pdfrwt beam="2">  1       -2 0.11426891E-02 0.91188000E+02</pdfrwt>
<totfact> 0.17501207E+05</totfact>
</mgrwt>
</event>
<event>
 3      1 +4.2044000e+04 9.11880000e+01 7.54677100e-03 1.30000000e-01
        1 -1    0    0  501    0 +0.0000000000e+00 +0.0000000000e+00 +2.4286818935e+03 2.4286818935e+03 0.0000000000e+00 0.0000e+00 -1.0000e+00
       -1 -1    0    0    0  501 -0.0000000000e+00 -0.0000000000e+00 -8.5594282296e-01 8.5594282296e-01 0.0000000000e+00 0.0000e+00 1.0000e+00
       23  1    1    2    0    0 +0.0000000000e+00 +0.0000000000e+00 +2.4278259507e+03 2.4295378363e+03 9.1188000000e+01 0.0000e+00 -1.0000e+00
<mgrwt>
<rscale>  0 0.91188000E+02</rscale>
<asrwt>0</asrwt>
<pdfrwt beam="1">  1        1 0.37363785E+00 0.91188000E+02</pdfrwt>
<pdfrwt beam="2">  1       -1 0.13168546E-03 0.91188000E+02</pdfrwt>
<totfact> 0.55832870E+04</totfact>
</mgrwt>
</event>
<event>
 3      1 +4.2044000e+04 9.11880000e+01 7.54677100e-03 1.30000000e-01
       -1 -1    0    0    0  501 -0.0000000000e+00 +0.0000000000e+00 +1.2682665095e+00 1.2682665095e+00 0.0000000000e+00 0.0000e+00 1.0000e+00
        1 -1    0    0  501    0 +0.0000000000e+00 -0.0000000000e+00 -1.6390977924e+03 1.6390977924e+03 0.0000000000e+00 0.0000e+00 -1.0000e+00
       23  1    1    2    0    0 +0.0000000000e+00 -0.0000000000e+00 -1.6378295259e+03 1.6403660590e+03 9.1188000000e+01 0.0000e+00 1.0000e+00
<mgrwt>
<rscale>  0 0.91188000E+02</rscale>
<asrwt>0</asrwt>
<pdfrwt beam="2">  1        1 0.25216831E+00 0.91188000E+02</pdfrwt>
<pdfrwt beam="1">  1       -1 0.19511838E-03 0.91188000E+02</pdfrwt>
<totfact> 0.10195070E+05</totfact>
</mgrwt>
</event>
<event>
 3      1 +4.2044000e+04 9.11880000e+01 7.54677100e-03 1.30000000e-01
       -1 -1    0    0    0  501 -0.0000000000e+00 +0.0000000000e+00 +2.0119055212e+00 2.0119055212e+00 0.0000000000e+00 0.0000e+00 1.0000e+00
        1 -1    0    0  501    0 +0.0000000000e+00 -0.0000000000e+00 -1.0332556942e+03 1.0332556942e+03 0.0000000000e+00 0.0000e+00 -1.0000e+00
       23  1    1    2    0    0 +0.0000000000e+00 -0.0000000000e+00 -1.0312437887e+03 1.0352675997e+03 9.1188000000e+01 0.0000e+00 1.0000e+00
<mgrwt>
<rscale>  0 0.91188000E+02</rscale>
<asrwt>0</asrwt>
<pdfrwt beam="2">  1        1 0.15896228E+00 0.91188000E+02</pdfrwt>
<pdfrwt beam="1">  1       -1 0.30952420E-03 0.91188000E+02</pdfrwt>
<totfact> 0.13472272E+05</totfact>
</mgrwt>
</event>
<event>
 3      1 +4.2044000e+04 9.11880000e+01 7.54677100e-03 1.30000000e-01
        2 -1    0    0  501    0 +0.0000000000e+00 +0.0000000000e+00 +5.4480672585e+02 5.4480672585e+02 0.0000000000e+00 0.0000e+00 1.0000e+00
       -2 -1    0    0    0  501 -0.0000000000e+00 -0.0000000000e+00 -3.8156886422e+00 3.8156886422e+00 0.0000000000e+00 0.0000e+00 -1.0000e+00
       23  1    1    2    0    0 +0.0000000000e+00 +0.0000000000e+00 +5.4099103721e+02 5.4862241449e+02 9.1188000000e+01 0.0000e+00 1.0000e+00
<mgrwt>
<rscale>  0 0.91188000E+02</rscale>
<asrwt>0</asrwt>
<pdfrwt beam="1">  1        2 0.83816358E-01 0.91188000E+02</pdfrwt>
<pdfrwt beam="2">  1       -2 0.58702945E-03 0.91188000E+02</pdfrwt>
<totfact> 0.22135770E+05</totfact>
</mgrwt>
</event>
<event>
 3      1 +4.2044000e+04 9.11880000e+01 7.54677100e-03 1.30000000e-01
       -1 -1    0    0    0  501 -0.0000000000e+00 +0.0000000000e+00 +3.2767760833e+00 3.2767760833e+00 0.0000000000e+00 0.0000e+00 1.0000e+00
        1 -1    0    0  501    0 +0.0000000000e+00 -0.0000000000e+00 -6.3440796171e+02 6.3440796171e+02 0.0000000000e+00 0.0000e+00 -1.0000e+00
       23  1    1    2    0    0 +0.0000000000e+00 -0.0000000000e+00 -6.3113118563e+02 6.3768473780e+02 9.1188000000e+01 0.0000e+00 1.0000e+00
<mgrwt>
<rscale>  0 0.91188000E+02</rscale>
<asrwt>0</asrwt>
<pdfrwt beam="2">  1        1 0.97601220E-01 0.91188000E+02</pdfrwt>
<pdfrwt beam="1">  1       -1 0.50411942E-03 0.91188000E+02</pdfrwt>
<totfact> 0.14192615E+05</totfact>
</mgrwt>
</event>
<event>
 3      1 +4.2044000e+04 9.11880000e+01 7.54677100e-03 1.30000000e-01
        2 -1    0    0  501    0 +0.0000000000e+00 +0.0000000000e+00 +1.0916847839e+03 1.0916847839e+03 0.0000000000e+00 0.0000e+00 -1.0000e+00
       -2 -1    0    0    0  501 -0.0000000000e+00 -0.0000000000e+00 -1.9042244305e+00 1.9042244305e+00 0.0000000000e+00 0.0000e+00 1.0000e+00
       23  1    1    2    0    0 +0.0000000000e+00 +0.0000000000e+00 +1.0897805595e+03 1.0935890084e+03 9.1188000000e+01 0.0000e+00 -1.0000e+00
<mgrwt>
<rscale>  0 0.91188000E+02</rscale>
<asrwt>0</asrwt>
<pdfrwt beam="1">  1        2 0.16795101E+00 0.91188000E+02</pdfrwt>
<pdfrwt beam="2">  1       -2 0.29295848E-03 0.91188000E+02</pdfrwt>
<totfact> 0.25016158E+05</totfact>
</mgrwt>
</event>
<event>
 3      1 +4.2044000e+04 9.11880000e+01 7.54677100e-03 1.30000000e-01
       -2 -1    0    0    0  501 -0.0000000000e+00 +0.0000000000e+00 +1.0113962985e+01 1.0113962985e+01 0.0000000000e+00 0.0000e+00 1.0000e+00
        2 -1    0    0  501    0 +0.0000000000e+00 -0.0000000000e+00 -2.0553890093e+02 2.0553890093e+02 0.0000000000e+00 0.0000e+00 -1.0000e+00
       23  1    1    2    0    0 +0.0000000000e+00 -0.0000000000e+00 -1.9542493794e+02 2.1565286391e+02 9.1188000000e+01 0.0000e+00 1.0000e+00
<mgrwt>
<rscale>  0 0.91188000E+02</rscale>
<asrwt>0</asrwt>
<pdfrwt beam="2">  1        2 0.31621368E-01 0.91188000E+02</pdfrwt>
<pdfrwt beam="1">  1       -2 0.15559944E-02 0.91188000E+02</pdfrwt>
<totfact> 0.15616685E+05</totfact>
</mgrwt>
</event>
<event>
 3      1 +4.2044000e+04 9.11880000e+01 7.54677100e-03 1.30000000e-01
        4 -1    0    0  501    0 +0.0000000000e+00 +0.0000000000e+00 +1.6528933962e+01 1.6528933962e+01 0.0000000000e+00 0.0000e+00 -1.0000e+00
       -4 -1    0    0    0  501 -0.0000000000e+00 -0.0000000000e+00 -1.2576811310e+02 1.2576811310e+02 0.0000000000e+00 0.0000e+00 1.0000e+00
       23  1    1    2    0    0 +0.0000000000e+00 +0.0000000000e+00 -1.0923917914e+02 1.4229704706e+02 9.1188000000e+01 0.0000e+00 -1.0000e+00
<mgrwt>
<rscale>  0 0.91188000E+02</rscale>
<asrwt>0</asrwt>
<pdfrwt beam="1">  1        4 0.25429128E-02 0.91188000E+02</pdfrwt>
<pdfrwt beam="2">  1       -4 0.19348942E-01 0.91188000E+02</pdfrwt>
<totfact> 0.24057845E+04</totfact>
</mgrwt>
</event>
<event>
 3      1 +4.2044000e+04 9.11880000e+01 7.54677100e-03 1.30000000e-01
       -2 -1    0    0    0  501 -0.0000000000e+00 +0.0000000000e+00 +6.7531905389e+00 6.7531905389e+00 0.0000000000e+00 0.0000e+00 1.0000e+00
        2 -1    0    0  501    0 +0.0000000000e+00 -0.0000000000e+00 -3.0782677077e+02 3.0782677077e+02 0.0000000000e+00 0.0000e+00 -1.0000e+00
       23  1    1    2    0    0 +0.0000000000e+00 -0.0000000000e+00 -3.0107358024e+02 3.1457996131e+02 9.1188000000e+01 0.0000e+00 1.0000e+00
<mgrwt>
<rscale>  0 0.91188000E+02</rscale>
<asrwt>0</asrwt>
<pdfrwt beam="2">  1        2 0.47357959E-01 0.91188000E+02</pdfrwt>
<pdfrwt beam="1">  1       -2 0.10389525E-02 0.91188000E+02</pdfrwt>
<totfact> 0.18133083E+05</totfact>
</mgrwt>
</event>
<event>
 3      1 +4.2044000e+04 9.11880000e+01 7.54677100e-03 1.30000000e-01
        2 -1    0    0  501    0 +0.0000000000e+00 +0.0000000000e+00 +3.7076146584e+01 3.7076146584e+01 0.0000000000e+00 0.0000e+00 -1.0000e+00
       -2 -1    0    0    0  501 -0.0000000000e+00 -0.0000000000e+00 -5.6068740350e+01 5.6068740350e+01 0.0000000000e+00 0.0000e+00 1.0000e+00
       23  1    1    2    0    0 +0.0000000000e+00 +0.0000000000e+00 -1.8992593766e+01 9.3144886934e+01 9.1188000000e+01 0.0000e+00 -1.0000e+00
<mgrwt>
<rscale>  0 0.91188000E+02</rscale>
<asrwt>0</asrwt>
<pdfrwt beam="1">  1        2 0.57040225E-02 0.91188000E+02</pdfrwt>
<pdfrwt beam="2">  1       -2 0.86259601E-02 0.91188000E+02</pdfrwt>
<totfact> 0.93497017E+04</totfact>
</mgrwt>
</event>
<event>
 3      1 +4.2044000e+04 9.11880000e+01 7.54677100e-03 1.30000000e-01
        3 -1    0    0  501    0 +0.0000000000e+00 +0.0000000000e+00 +1.1835193762e+01 1.1835193762e+01 0.0000000000e+00 0.0000e+00 -1.0000e+00
       -3 -1    0    0    0  501 -0.0000000000e+00 -0.0000000000e+00 -1.7564670911e+02 1.7564670911e+02 0.0000000000e+00 0.0000e+00 1.0000e+00
       23  1    1    2    0    0 +0.0000000000e+00 +0.0000000000e+00 -1.6381151535e+02 1.8748190287e+02 9.1188000000e+01 0.0000e+00 -1.0000e+00
<mgrwt>
<rscale>  0 0.91188000E+02</rscale>
<asrwt>0</asrwt>
<pdfrwt beam="1">  1        3 0.18207990E-02 0.91188000E+02</pdfrwt>
<pdfrwt beam="2">  1       -3 0.27022571E-01 0.91188000E+02</pdfrwt>
<totfact> 0.29148710E+04</totfact>
</mgrwt>
</event>
<event>
 3      1 +4.2044000e+04 9.11880000e+01 7.54677100e-03 1.30000000e-01
       -2 -1    0    0    0  501 -0.0000000000e+00 +0.0000000000e+00 +1.2649790757e+00 1.2649790757e+00 0.0000000000e+00 0.0000e+00 -1.0000e+00
        2 -1    0    0  501    0 +0.0000000000e+00 -0.0000000000e+00 -1.6433574878e+03 1.6433574878e+03 0.0000000000e+00 0.0000e+00 1.0000e+00
       23  1    1    2    0    0 +0.0000000000e+00 -0.0000000000e+00 -1.6420925087e+03 1.6446224669e+03 9.1188000000e+01 0.0000e+00 -1.0000e+00
<mgrwt>
<rscale>  0 0.91188000E+02</rscale>
<asrwt>0</asrwt>
<pdfrwt beam="2">  1        2 0.25282384E+00 0.91188000E+02</pdfrwt>
<pdfrwt beam="1">  1       -2 0.19461246E-03 0.91188000E+02</pdfrwt>
<totfact> 0.22642106E+05</totfact>
</mgrwt>
</event>
<event>
 3      1 +4.2044000e+04 9.11880000e+01 7.54677100e-03 1.30000000e-01
        1 -1    0    0  501    0 +0.0000000000e+00 +0.0000000000e+00 +8.1111100274e+02 8.1111100274e+02 0.0000000000e+00 0.0000e+00 -1.0000e+00
       -1 -1    0    0    0  501 -0.0000000000e+00 -0.0000000000e+00 -2.5629202772e+00 2.5629202772e+00 0.0000000000e+00 0.0000e+00 1.0000e+00
       23  1    1    2    0    0 +0.0000000000e+00 +0.0000000000e+00 +8.0854808246e+02 8.1367392301e+02 9.1188000000e+01 0.0000e+00 -1.0000e+00
<mgrwt>
<rscale>  0 0.91188000E+02</rscale>
<asrwt>0</asrwt>
<pdfrwt beam="1">  1        1 0.12478610E+00 0.91188000E+02</pdfrwt>
<pdfrwt beam="2">  1       -1 0.39429607E-03 0.91188000E+02</pdfrwt>
<totfact> 0.14107420E+05</totfact>
</mgrwt>
</event>
<event>
 3      1 +4.2044000e+04 9.11880000e+01 7.54677100e-03 1.30000000e-01
       -2 -1    0    0    0  501 -0.0000000000e+00 +0.0000000000e+00 +5.2148920204e+00 5.2148920204e+00 0.0000000000e+00 0.0000e+00 1.0000e+00
        2 -1    0    0  501    0 +0.0000000000e+00 -0.0000000000e+00 -3.9863008244e+02 3.9863008244e+02 0.0000000000e+00 0.0000e+00 -1.0000e+00
       23  1    1    2    0    0 +0.0000000000e+00 -0.0000000000e+00 -3.9341519042e+02 4.0384497446e+02 9.1188000000e+01 0.0000e+00 1.0000e+00
<mgrwt>
<rscale>  0 0.91188000E+02</rscale>
<asrwt>0</asrwt>
<pdfrwt beam="2">  1        2 0.61327713E-01 0.91188000E+02</pdfrwt>
<pdfrwt beam="1">  1       -2 0.80229098E-03 0.91188000E+02</pdfrwt>
<totfact> 0.19931533E+05</totfact>
</mgrwt>
</event>
<event>
 3      1 +4.2044000e+04 9.11880000e+01 7.54677100e-03 1.30000000e-01
        3 -1    0    0  501    0 +0.0000000000e+00 +0.0000000000e+00 +3.3709518911e+01 3.3709518911e+01 0.0000000000e+00 0.0000e+00 -1.0000e+00
       -3 -1    0    0    0  501 -0.0000000000e+00 -0.0000000000e+00 -6.1668421953e+01 6.1668421953e+01 0.0000000000e+00 0.0000e+00 1.0000e+00
       23  1    1    2    0    0 +0.0000000000e+00 +0.0000000000e+00 -2.7958903042e+01 9.5377940863e+01 9.1188000000e+01 0.0000e+00 -1.0000e+00
<mgrwt>
<rscale>  0 0.91188000E+02</rscale>
<asrwt>0</asrwt>
<pdfrwt beam="1">  1        3 0.51860798E-02 0.91188000E+02</pdfrwt>
<pdfrwt beam="2">  1       -3 0.94874495E-02 0.91188000E+02</pdfrwt>
<totfact> 0.35006925E+04</totfact>
</mgrwt>
</event>
<event>
 3      1 +4.2044000e+04 9.11880000e+01 7.54677100e-03 1.30000000e-01
        3 -1    0    0  501    0 +0.0000000000e+00 +0.0000000000e+00 +4.3128162563e+01 4.3128162563e+01 0.0000000000e+00 0.0000e+00 -1.0000e+00
       -3 -1    0    0    0  501 -0.0000000000e+00 -0.0000000000e+00 -4.8200820821e+01 4.8200820821e+01 0.0000000000e+00 0.0000e+00 1.0000e+00
       23  1    1    2    0    0 +0.0000000000e+00 +0.0000000000e+00 -5.0726582579e+00 9.1328983383e+01 9.1188000000e+01 0.0000e+00 -1.0000e+00
<mgrwt>
<rscale>  0 0.91188000E+02</rscale>
<asrwt>0</asrwt>
<pdfrwt beam="1">  1        3 0.66351019E-02 0.91188000E+02</pdfrwt>
<pdfrwt beam="2">  1       -3 0.74155109E-02 0.91188000E+02</pdfrwt>
<totfact> 0.35315269E+04</totfact>
</mgrwt>
</event>
<event>
 3      1 +4.2044000e+04 9.11880000e+01 7.54677100e-03 1.30000000e-01
        1 -1    0    0  501    0 +0.0000000000e+00 +0.0000000000e+00 +3.2763640573e+00 3.2763640573e+00 0.0000000000e+00 0.0000e+00 -1.0000e+00
       -1 -1    0    0    0  501 -0.0000000000e+00 -0.0000000000e+00 -6.3448774301e+02 6.3448774301e+02 0.0000000000e+00 0.0000e+00 1.0000e+00
       23  1    1    2    0    0 +0.0000000000e+00 +0.0000000000e+00 -6.3121137895e+02 6.3776410707e+02 9.1188000000e+01 0.0000e+00 -1.0000e+00
<mgrwt>
<rscale>  0 0.91188000E+02</rscale>
<asrwt>0</asrwt>
<pdfrwt beam="1">  1        1 0.50405537E-03 0.91188000E+02</pdfrwt>
<pdfrwt beam="2">  1       -1 0.97613622E-01 0.91188000E+02</pdfrwt>
<totfact> 0.39892082E+04</totfact>
</mgrwt>
</event>
<event>
 3      1 +4.2044000e+04 9.11880000e+01 7.54677100e-03 1.30000000e-01
       -1 -1    0    0    0  501 -0.0000000000e+00 +0.0000000000e+00 +9.2628483659e+00 9.2628483659e+00 0.0000000000e+00 0.0000e+00 1.0000e+00
        1 -1    0    0  501    0 +0.0000000000e+00 -0.0000000000e+00 -2.2442479396e+02 2.2442479396e+02 0.0000000000e+00 0.0000e+00 -1.0000e+00
       23  1    1    2    0    0 +0.0000000000e+00 -0.0000000000e+00 -2.1516194559e+02 2.3368764233e+02 9.1188000000e+01 0.0000e+00 1.0000e+00
<mgrwt>
<rscale>  0 0.91188000E+02</rscale>
<asrwt>0</asrwt>
<pdfrwt beam="2">  1        1 0.34526890E-01 0.91188000E+02</pdfrwt>
<pdfrwt beam="1">  1       -1 0.14250537E-02 0.91188000E+02</pdfrwt>
<totfact> 0.12105347E+05</totfact>
</mgrwt>
</event>
<event>
 3      1 +4.2044000e+04 9.11880000e+01 7.54677100e-03 1.30000000e-01
        1 -1    0    0  501    0 +0.0000000000e+00 +0.0000000000e+00 +2.2897202583e+03 2.2897202583e+03 0.0000000000e+00 0.0000e+00 -1.0000e+00
       -1 -1    0    0    0  501 -0.0000000000e+00 -0.0000000000e+00 -9.0788943692e-01 9.0788943692e-01 0.0000000000e+00 0.0000e+00 1.0000e+00
       23  1    1    2    0    0 +0.0000000000e+00 +0.0000000000e+00 +2.2888123688e+03 2.2906281477e+03 9.1188000000e+01 0.0000e+00 -1.0000e+00
<mgrwt>
<rscale>  0 0.91188000E+02</rscale>
<asrwt>0</asrwt>
<pdfrwt beam="1">  1        1 0.35226003E+00 0.91188000E+02</pdfrwt>
<pdfrwt beam="2">  1       -1 0.13967713E-03 0.91188000E+02</pdfrwt>
<totfact> 0.63116184E+04</totfact>
</mgrwt>
</event>
<event>
 3      1 +4.2044000e+04 9.11880000e+01 7.54677100e-03 1.30000000e-01
       -1 -1    0    0    0  501 -0.0000000000e+00 +0.0000000000e+00 +7.1690359699e-01 7.1690359699e-01 0.0000000000e+00 0.0000e+00 1.0000e+00
        1 -1    0    0  501    0 +0.0000000000e+00 -0.0000000000e+00 -2.8997104279e+03 2.8997104279e+03 0.0000000000e+00 0.0000e+00 -1.0000e+00
       23  1    1    2    0    0 +0.0000000000e+00 -0.0000000000e+00 -2.8989935243e+03 2.9004273315e+03 9.1188000000e+01 0.0000e+00 1.0000e+00
<mgrwt>
<rscale>  0 0.91188000E+02</rscale>
<asrwt>0</asrwt>
<pdfrwt beam="2">  1        1 0.44609801E+00 0.91188000E+02</pdfrwt>
<pdfrwt beam="1">  1       -1 0.11029565E-03 0.91188000E+02</pdfrwt>
<totfact> 0.35056320E+04</totfact>
</mgrwt>
</event>
<event>
 3      1 +4.2044000e+04 9.11880000e+01 7.54677100e-03 1.30000000e-01
        2 -1    0    0  501    0 +0.0000000000e+00 +0.0000000000e+00 +2.7322029673e+01 2.7322029673e+01 0.0000000000e+00 0.0000e+00 -1.0000e+00
       -2 -1    0    0    0  501 -0.0000000000e+00 -0.0000000000e+00 -7.6085593234e+01 7.6085593234e+01 0.0000000000e+00 0.0000e+00 1.0000e+00
       23  1    1    2    0    0 +0.0000000000e+00 +0.0000000000e+00 -4.8763563561e+01 1.0340762291e+02 9.1188000000e+01 0.0000e+00 -1.0000e+00
<mgrwt>
<rscale>  0 0.91188000E+02</rscale>
<asrwt>0</asrwt>
<pdfrwt beam="1">  1        2 0.42033893E-02 0.91188000E+02</pdfrwt>
<pdfrwt beam="2">  1       -2 0.11705476E-01 0.91188000E+02</pdfrwt>
<totfact> 0.86231995E+04</totfact>
</mgrwt>
</event>
<event>
 3      1 +4.2044000e+04 9.11880000e+01 7.54677100e-03 1.30000000e-01
        2 -1    0    0  501    0 +0.0000000000e+00 +0.0000000000e+00 +3.0253781373e+03 3.0253781373e+03 0.0000000000e+00 0.0000e+00 -1.0000e+00
       -2 -1    0    0    0  501 -0.0000000000e+00 -0.0000000000e+00 -6.8712496147e-01 6.8712496147e-01 0.0000000000e+00 0.0000e+00 1.0000e+00
       23  1    1    2    0    0 +0.0000000000e+00 +0.0000000000e+00 +3.0246910123e+03 3.0260652622e+03 9.1188000000e+01 0.0000e+00 -1.0000e+00
<mgrwt>
<rscale>  0 0.91188000E+02</rscale>
<asrwt>0</asrwt>
<pdfrwt beam="1">  1        2 0.46543212E+00 0.91188000E+02</pdfrwt>
<pdfrwt beam="2">  1       -2 0.10571396E-03 0.91188000E+02</pdfrwt>
<totfact> 0.99691193E+04</totfact>
</mgrwt>
</event>
<event>
 3      1 +4.2044000e+04 9.11880000e+01 7.54677100e-03 1.30000000e-01
       -1 -1    0    0    0  501 -0.0000000000e+00 +0.0000000000e+00 +2.5005095477e+00 2.5005095477e+00 0.0000000000e+00 0.0000e+00 1.0000e+00
        1 -1    0    0  501    0 +0.0000000000e+00 -0.0000000000e+00 -8.3135568826e+02 8.3135568826e+02 0.0000000000e+00 0.0000e+00 -1.0000e+00
       23  1    1    2    0    0 +0.0000000000e+00 -0.0000000000e+00 -8.2885517871e+02 8.3385619780e+02 9.1188000000e+01 0.0000e+00 1.0000e+00
<mgrwt>
<rscale>  0 0.91188000E+02</rscale>
<asrwt>0</asrwt>
<pdfrwt beam="2">  1        1 0.12790070E+00 0.91188000E+02</pdfrwt>
<pdfrwt beam="1">  1       -1 0.38469429E-03 0.91188000E+02</pdfrwt>
<totfact> 0.14071044E+05</totfact>
</mgrwt>
</event>
<event>
 3      1 +4.2044000e+04 9.11880000e+01 7.54677100e-03 1.30000000e-01
        2 -1    0    0  501    0 +0.0000000000e+00 +0.0000000000e+00 +3.0142874758e+03 3.0142874758e+03 0.0000000000e+00 0.0000e+00 -1.0000e+00
       -2 -1    0    0    0  501 -0.0000000000e+00 -0.0000000000e+00 -6.8965314445e-01 6.8965314445e-01 0.0000000000e+00 0.0000e+00 1.0000e+00
       23  1    1    2    0    0 +0.0000000000e+00 +0.0000000000e+00 +3.0135978227e+03 3.0149771290e+03 9.1188000000e+01 0.0000e+00 -1.0000e+00
<mgrwt>
<rscale>  0 0.91188000E+02</rscale>
<asrwt>0</asrwt>
<pdfrwt beam="1">  1        2 0.46372599E+00 0.91188000E+02</pdfrwt>
<pdfrwt beam="2">  1       -2 0.10610290E-03 0.91188000E+02</pdfrwt>
<totfact> 0.10064722E+05</totfact>
</mgrwt>
</event>
<event>
 3      1 +4.2044000e+04 9.11880000e+01 7.54677100e-03 1.30000000e-01
       -2 -1    0    0    0  501 -0.0000000000e+00 +0.0000000000e+00 +9.1637107641e+00 9.1637107641e+00 0.0000000000e+00 0.0000e+00 1.0000e+00
        2 -1    0    0  501    0 +0.0000000000e+00 -0.0000000000e+00 -2.2685273352e+02 2.2685273352e+02 0.0000000000e+00 0.0000e+00 -1.0000e+00
       23  1    1    2    0    0 +0.0000000000e+00 -0.0000000000e+00 -2.1768902275e+02 2.3601644428e+02 9.1188000000e+01 0.0000e+00 1.0000e+00
<mgrwt>
<rscale>  0 0.91188000E+02</rscale>
<asrwt>0</asrwt>
<pdfrwt beam="2">  1        2 0.34900418E-01 0.91188000E+02</pdfrwt>
<pdfrwt beam="1">  1       -2 0.14098018E-02 0.91188000E+02</pdfrwt>
<totfact> 0.16189889E+05</totfact>
</mgrwt>
</event>
<event>
 3      1 +4.2044000e+04 9.11880000e+01 7.54677100e-03 1.30000000e-01
        1 -1    0    0  501    0 +0.0000000000e+00 +0.0000000000e+00 +9.9057936695e+00 9.9057936695e+00 0.0000000000e+00 0.0000e+00 -1.0000e+00
       -1 -1    0    0    0  501 -0.0000000000e+00 -0.0000000000e+00 -2.0985828146e+02 2.0985828146e+02 0.0000000000e+00 0.0000e+00 1.0000e+00
       23  1    1    2    0    0 +0.0000000000e+00 +0.0000000000e+00 -1.9995248779e+02 2.1976407513e+02 9.1188000000e+01 0.0000e+00 -1.0000e+00
<mgrwt>
<rscale>  0 0.91188000E+02</rscale>
<asrwt>0</asrwt>
<pdfrwt beam="1">  1        1 0.15239683E-02 0.91188000E+02</pdfrwt>
<pdfrwt beam="2">  1       -1 0.32285889E-01 0.91188000E+02</pdfrwt>
<totfact> 0.68436924E+04</totfact>
</mgrwt>
</event>
<event>
 3      1 +4.2044000e+04 9.11880000e+01 7.54677100e-03 1.30000000e-01
        2 -1    0    0  501    0 +0.0000000000e+00 +0.0000000000e+00 +1.4269264648e+02 1.4269264648e+02 0.0000000000e+00 0.0000e+00 -1.0000e+00
       -2 -1    0    0    0  501 -0.0000000000e+00 -0.0000000000e+00 -1.4568465070e+01 1.4568465070e+01 0.0000000000e+00 0.0000e+00 1.0000e+00
       23  1    1    2    0    0 +0.0000000000e+00 +0.0000000000e+00 +1.2812418141e+02 1.5726111155e+02 9.1188000000e+01 0.0000e+00 -1.0000e+00
<mgrwt>
<rscale>  0 0.91188000E+02</rscale>
<asrwt>0</asrwt>
<pdfrwt beam="1">  1        2 0.21952714E-01 0.91188000E+02</pdfrwt>
<pdfrwt beam="2">  1       -2 0.22413024E-02 0.91188000E+02</pdfrwt>
<totfact> 0.13742284E+05</totfact>
</mgrwt>
</event>
<event>
 3      1 +4.2044000e+04 9.11880000e+01 7.54677100e-03 1.30000000e-01
       -2 -1    0    0    0  501 -0.0000000000e+00 +0.0000000000e+00 +1.9712935950e+00 1.9712935950e+00 0.0000000000e+00 0.0000e+00 1.0000e+00
        2 -1    0    0  501    0 +0.0000000000e+00 -0.0000000000e+00 -1.0545424798e+03 1.0545424798e+03 0.0000000000e+00 0.0000e+00 -1.0000e+00
       23  1    1    2    0    0 +0.0000000000e+00 -0.0000000000e+00 -1.0525711862e+03 1.0565137734e+03 9.1188000000e+01 0.0000e+00 1.0000e+00
<mgrwt>
<rscale>  0 0.91188000E+02</rscale>
<asrwt>0</asrwt>
<pdfrwt beam="2">  1        2 0.16223725E+00 0.91188000E+02</pdfrwt>
<pdfrwt beam="1">  1       -2 0.30327604E-03 0.91188000E+02</pdfrwt>
<totfact> 0.25025039E+05</totfact>
</mgrwt>
</event>
<event>
 3      1 +4.2044000e+04 9.11880000e+01 7.54677100e-03 1.30000000e-01
        1 -1    0    0  501    0 +0.0000000000e+00 +0.0000000000e+00 +8.1392304056e+00 8.1392304056e+00 0.0000000000e+00 0.0000e+00 -1.0000e+00
       -1 -1    0    0    0  501 -0.0000000000e+00 -0.0000000000e+00 -2.5540655964e+02 2.5540655964e+02 0.0000000000e+00 0.0000e+00 1.0000e+00
       23  1    1    2    0    0 +0.0000000000e+00 +0.0000000000e+00 -2.4726732923e+02 2.6354579005e+02 9.1188000000e+01 0.0000e+00 -1.0000e+00
<mgrwt>
<rscale>  0 0.91188000E+02</rscale>
<asrwt>0</asrwt>
<pdfrwt beam="1">  1        1 0.12521895E-02 0.91188000E+02</pdfrwt>
<pdfrwt beam="2">  1       -1 0.39293309E-01 0.91188000E+02</pdfrwt>
<totfact> 0.64272640E+04</totfact>
</mgrwt>
</event>
<event>
 3      1 +4.2044000e+04 9.11880000e+01 7.54677100e-03 1.30000000e-01
       -3 -1    0    0    0  501 -0.0000000000e+00 +0.0000000000e+00 +2.0941826726e+00 2.0941826726e+00 0.0000000000e+00 0.0000e+00 1.0000e+00
        3 -1    0    0  501    0 +0.0000000000e+00 -0.0000000000e+00 -9.9266069920e+02 9.9266069920e+02 0.0000000000e+00 0.0000e+00 -1.0000e+00
       23  1    1    2    0    0 +0.0000000000e+00 -0.0000000000e+00 -9.9056651653e+02 9.9475488188e+02 9.1188000000e+01 0.0000e+00 1.0000e+00
<mgrwt>
<rscale>  0 0.91188000E+02</rscale>
<asrwt>0</asrwt>
<pdfrwt beam="2">  1        3 0.15271696E+00 0.91188000E+02</pdfrwt>
<pdfrwt beam="1">  1       -3 0.32218209E-03 0.91188000E+02</pdfrwt>
<totfact> 0.10071065E+04</totfact>
</mgrwt>
</event>
<event>
 3      1 +4.2044000e+04 9.11880000e+01 7.54677100e-03 1.30000000e-01
        2 -1    0    0  501    0 +0.0000000000e+00 +0.0000000000e+00 +7.4673547342e+02 7.4673547342e+02 0.0000000000e+00 0.0000e+00 -1.0000e+00
       -2 -1    0    0    0  501 -0.0000000000e+00 -0.0000000000e+00 -2.7838677952e+00 2.7838677952e+00 0.0000000000e+00 0.0000e+00 1.0000e+00
       23  1    1    2    0    0 +0.0000000000e+00 +0.0000000000e+00 +7.4395160563e+02 7.4951934122e+02 9.1188000000e+01 0.0000e+00 -1.0000e+00
<mgrwt>
<rscale>  0 0.91188000E+02</rscale>
<asrwt>0</asrwt>
<pdfrwt beam="1">  1        2 0.11488222E+00 0.91188000E+02</pdfrwt>
<pdfrwt beam="2">  1       -2 0.42828795E-03 0.91188000E+02</pdfrwt>
<totfact> 0.24046464E+05</totfact>
</mgrwt>
</event>
<event>
 3      1 +4.2044000e+04 9.11880000e+01 7.54677100e-03 1.30000000e-01
        2 -1    0    0  501    0 +0.0000000000e+00 +0.0000000000e+00 +1.6237538402e+01 1.6237538402e+01 0.0000000000e+00 0.0000e+00 -1.0000e+00
       -2 -1    0    0    0  501 -0.0000000000e+00 -0.0000000000e+00 -1.2802512207e+02 1.2802512207e+02 0.0000000000e+00 0.0000e+00 1.0000e+00
       23  1    1    2    0    0 +0.0000000000e+00 +0.0000000000e+00 -1.1178758367e+02 1.4426266047e+02 9.1188000000e+01 0.0000e+00 -1.0000e+00
<mgrwt>
<rscale>  0 0.91188000E+02</rscale>
<asrwt>0</asrwt>
<pdfrwt beam="1">  1        2 0.24980829E-02 0.91188000E+02</pdfrwt>
<pdfrwt beam="2">  1       -2 0.19696172E-01 0.91188000E+02</pdfrwt>
<totfact> 0.73803894E+04</totfact>
</mgrwt>
</event>
<event>
 3      1 +4.2044000e+04 9.11880000e+01 7.54677100e-03 1.30000000e-01
        2 -1    0    0  501    0 +0.0000000000e+00 +0.0000000000e+00 +1.9063164570e+03 1.9063164570e+03 0.0000000000e+00 0.0000e+00 -1.0000e+00
       -2 -1    0    0    0  501 -0.0000000000e+00 -0.0000000000e+00 -1.0904867492e+00 1.0904867492e+00 0.0000000000e+00 0.0000e+00 1.0000e+00
       23  1    1    2    0    0 +0.0000000000e+00 +0.0000000000e+00 +1.9052259702e+03 1.9074069437e+03 9.1188000000e+01 0.0000e+00 -1.0000e+00
<mgrwt>
<rscale>  0 0.91188000E+02</rscale>
<asrwt>0</asrwt>
<pdfrwt beam="1">  1        2 0.29327679E+00 0.91188000E+02</pdfrwt>
<pdfrwt beam="2">  1       -2 0.16776872E-03 0.91188000E+02</pdfrwt>
<totfact> 0.20517591E+05</totfact>
</mgrwt>
</event>
<event>
 3      1 +4.2044000e+04 9.11880000e+01 7.54677100e-03 1.30000000e-01
       -3 -1    0    0    0  501 -0.0000000000e+00 +0.0000000000e+00 +4.6888717033e+01 4.6888717033e+01 0.0000000000e+00 0.0000e+00 -1.0000e+00
        3 -1    0    0  501    0 +0.0000000000e+00 -0.0000000000e+00 -4.4335033406e+01 4.4335033406e+01 0.0000000000e+00 0.0000e+00 1.0000e+00
       23  1    1    2    0    0 +0.0000000000e+00 -0.0000000000e+00 +2.5536836270e+00 9.1223750439e+01 9.1188000000e+01 0.0000e+00 -1.0000e+00
<mgrwt>
<rscale>  0 0.91188000E+02</rscale>
<asrwt>0</asrwt>
<pdfrwt beam="2">  1        3 0.68207743E-02 0.91188000E+02</pdfrwt>
<pdfrwt beam="1">  1       -3 0.72136488E-02 0.91188000E+02</pdfrwt>
<totfact> 0.35323220E+04</totfact>
</mgrwt>
</event>
<event>
 3      1 +4.2044000e+04 9.11880000e+01 7.54677100e-03 1.30000000e-01
        1 -1    0    0  501    0 +0.0000000000e+00 +0.0000000000e+00 +5.3840215279e+00 5.3840215279e+00 0.0000000000e+00 0.0000e+00 -1.0000e+00
       -1 -1    0    0    0  501 -0.0000000000e+00 -0.0000000000e+00 -3.8610782390e+02 3.8610782390e+02 0.0000000000e+00 0.0000e+00 1.0000e+00
       23  1    1    2    0    0 +0.0000000000e+00 +0.0000000000e+00 -3.8072380237e+02 3.9149184543e+02 9.1188000000e+01 0.0000e+00 -1.0000e+00
<mgrwt>
<rscale>  0 0.91188000E+02</rscale>
<asrwt>0</asrwt>
<pdfrwt beam="1">  1        1 0.82831125E-03 0.91188000E+02</pdfrwt>
<pdfrwt beam="2">  1       -1 0.59401186E-01 0.91188000E+02</pdfrwt>
<totfact> 0.54217672E+04</totfact>
</mgrwt>
</event>
<event>
 3      1 +4.2044000e+04 9.11880000e+01 7.54677100e-03 1.30000000e-01
       -1 -1    0    0    0  501 -0.0000000000e+00 +0.0000000000e+00 +3.0832683162e+01 3.0832683162e+01 0.0000000000e+00 0.0000e+00 1.0000e+00
        1 -1    0    0  501    0 +0.0000000000e+00 -0.0000000000e+00 -6.7422378554e+01 6.7422378554e+01 0.0000000000e+00 0.0000e+00 -1.0000e+00
       23  1    1    2    0    0 +0.0000000000e+00 -0.0000000000e+00 -3.6589695392e+01 9.8255061716e+01 9.1188000000e+01 0.0000e+00 1.0000e+00
<mgrwt>
<rscale>  0 0.91188000E+02</rscale>
<asrwt>0</asrwt>
<pdfrwt beam="2">  1        1 0.10372674E-01 0.91188000E+02</pdfrwt>
<pdfrwt beam="1">  1       -1 0.47434897E-02 0.91188000E+02</pdfrwt>
<totfact> 0.98065689E+04</totfact>
</mgrwt>
</event>
<event>
 3      1 +4.2044000e+04 9.11880000e+01 7.54677100e-03 1.30000000e-01
       -3 -1    0    0    0  501 -0.0000000000e+00 +0.0000000000e+00 +3.4842643553e+01 3.4842643553e+01 0.0000000000e+00 0.0000e+00 1.0000e+00
        3 -1    0    0  501    0 +0.0000000000e+00 -0.0000000000e+00 -5.9662890757e+01 5.9662890757e+01 0.0000000000e+00 0.0000e+00 -1.0000e+00
       23  1    1    2    0    0 +0.0000000000e+00 -0.0000000000e+00 -2.4820247204e+01 9.4505534310e+01 9.1188000000e+01 0.0000e+00 1.0000e+00
<mgrwt>
<rscale>  0 0.91188000E+02</rscale>
<asrwt>0</asrwt>
<pdfrwt beam="2">  1        3 0.91789063E-02 0.91188000E+02</pdfrwt>
<pdfrwt beam="1">  1       -3 0.53604067E-02 0.91188000E+02</pdfrwt>
<totfact> 0.35072356E+04</totfact>
</mgrwt>
</event>
<event>
 3      1 +4.2044000e+04 9.11880000e+01 7.54677100e-03 1.30000000e-01
        1 -1    0    0  501    0 +0.0000000000e+00 +0.0000000000e+00 +8.8386308987e+01 8.8386308987e+01 0.0000000000e+00 0.0000e+00 -1.0000e+00
       -1 -1    0    0    0  501 -0.0000000000e+00 -0.0000000000e+00 -2.3519624926e+01 2.3519624926e+01 0.0000000000e+00 0.0000e+00 1.0000e+00
       23  1    1    2    0    0 +0.0000000000e+00 +0.0000000000e+00 +6.4866684061e+01 1.1190593391e+02 9.1188000000e+01 0.0000e+00 -1.0000e+00
<mgrwt>
<rscale>  0 0.91188000E+02</rscale>
<asrwt>0</asrwt>
<pdfrwt beam="1">  1        1 0.13597894E-01 0.91188000E+02</pdfrwt>
<pdfrwt beam="2">  1       -1 0.36184039E-02 0.91188000E+02</pdfrwt>
<totfact> 0.10232593E+05</totfact>
</mgrwt>
</event>
<event>
 3      1 +4.2044000e+04 9.11880000e+01 7.54677100e-03 1.30000000e-01
        2 -1    0    0  501    0 +0.0000000000e+00 +0.0000000000e+00 +2.5853546574e+03 2.5853546574e+03 0.0000000000e+00 0.0000e+00 -1.0000e+00
       -2 -1    0    0    0  501 -0.0000000000e+00 -0.0000000000e+00 -8.0407259795e-01 8.0407259795e-01 0.0000000000e+00 0.0000e+00 1.0000e+00
       23  1    1    2    0    0 +0.0000000000e+00 +0.0000000000e+00 +2.5845505848e+03 2.5861587300e+03 9.1188000000e+01 0.0000e+00 -1.0000e+00
<mgrwt>
<rscale>  0 0.91188000E+02</rscale>
<asrwt>0</asrwt>
<pdfrwt beam="1">  1        2 0.39774021E+00 0.91188000E+02</pdfrwt>
<pdfrwt beam="2">  1       -2 0.12370555E-03 0.91188000E+02</pdfrwt>
<totfact> 0.14020729E+05</totfact>
</mgrwt>
</event>
<event>
 3      1 +4.2044000e+04 9.11880000e+01 7.54677100e-03 1.30000000e-01
        1 -1    0    0  501    0 +0.0000000000e+00 +0.0000000000e+00 +1.4258012631e+03 1.4258012631e+03 0.0000000000e+00 0.0000e+00 -1.0000e+00
       -1 -1    0    0    0  501 -0.0000000000e+00 -0.0000000000e+00 -1.4579962088e+00 1.4579962088e+00 0.0000000000e+00 0.0000e+00 1.0000e+00
       23  1    1    2    0    0 +0.0000000000e+00 +0.0000000000e+00 +1.4243432668e+03 1.4272592593e+03 9.1188000000e+01 0.0000e+00 -1.0000e+00
<mgrwt>
<rscale>  0 0.91188000E+02</rscale>
<asrwt>0</asrwt>
<pdfrwt beam="1">  1        1 0.21935293E+00 0.91188000E+02</pdfrwt>
<pdfrwt beam="2">  1       -1 0.22430825E-03 0.91188000E+02</pdfrwt>
<totfact> 0.11489065E+05</totfact>
</mgrwt>
</event>
<event>
 3      1 +4.2044000e+04 9.11880000e+01 7.54677100e-03 1.30000000e-01
       -2 -1    0    0    0  501 -0.0000000000e+00 +0.0000000000e+00 +4.6733065361e+00 4.6733065361e+00 0.0000000000e+00 0.0000e+00 1.0000e+00
        2 -1    0    0  501    0 +0.0000000000e+00 -0.0000000000e+00 -4.4482698063e+02 4.4482698063e+02 0.0000000000e+00 0.0000e+00 -1.0000e+00
       23  1    1    2    0    0 +0.0000000000e+00 -0.0000000000e+00 -4.4015367409e+02 4.4950028717e+02 9.1188000000e+01 0.0000e+00 1.0000e+00
<mgrwt>
<rscale>  0 0.91188000E+02</rscale>
<asrwt>0</asrwt>
<pdfrwt beam="2">  1        2 0.68434910E-01 0.91188000E+02</pdfrwt>
<pdfrwt beam="1">  1       -2 0.71897034E-03 0.91188000E+02</pdfrwt>
<totfact> 0.20714798E+05</totfact>
</mgrwt>
</event>
<event>
 3      1 +4.2044000e+04 9.11880000e+01 7.54677100e-03 1.30000000e-01
        2 -1    0    0  501    0 +0.0000000000e+00 +0.0000000000e+00 +1.0099833011e+03 1.0099833011e+03 0.0000000000e+00 0.0000e+00 -1.0000e+00
       -2 -1    0    0    0  501 -0.0000000000e+00 -0.0000000000e+00 -2.0582645612e+00 2.0582645612e+00 0.0000000000e+00 0.0000e+00 1.0000e+00
       23  1    1    2    0    0 +0.0000000000e+00 +0.0000000000e+00 +1.0079250365e+03 1.0120415656e+03 9.1188000000e+01 0.0000e+00 -1.0000e+00
<mgrwt>
<rscale>  0 0.91188000E+02</rscale>
<asrwt>0</asrwt>
<pdfrwt beam="1">  1        2 0.15538165E+00 0.91188000E+02</pdfrwt>
<pdfrwt beam="2">  1       -2 0.31665689E-03 0.91188000E+02</pdfrwt>
<totfact> 0.25003242E+05</totfact>
</mgrwt>
</event>
<event>
 3      1 +4.2044000e+04 9.11880000e+01 7.54677100e-03 1.30000000e-01
        1 -1    0    0  501    0 +0.0000000000e+00 +0.0000000000e+00 +1.4268835210e+03 1.4268835210e+03 0.0000000000e+00 0.0000e+00 -1.0000e+00
       -1 -1    0    0    0  501 -0.0000000000e+00 -0.0000000000e+00 -1.4568903525e+00 1.4568903525e+00 0.0000000000e+00 0.0000e+00 1.0000e+00
       23  1    1    2    0    0 +0.0000000000e+00 +0.0000000000e+00 +1.4254266307e+03 1.4283404114e+03 9.1188000000e+01 0.0000e+00 -1.0000e+00
<mgrwt>
<rscale>  0 0.91188000E+02</rscale>
<asrwt>0</asrwt>
<pdfrwt beam="1">  1        1 0.21951942E+00 0.91188000E+02</pdfrwt>
<pdfrwt beam="2">  1       -1 0.22413812E-03 0.91188000E+02</pdfrwt>
<totfact> 0.11482716E+05</totfact>
</mgrwt>
</event>
<event>
 3      1 +4.2044000e+04 9.11880000e+01 7.54677100e-03 1.30000000e-01
       -3 -1    0    0    0  501 -0.0000000000e+00 +0.0000000000e+00 +4.7775299663e+00 4.7775299663e+00 0.0000000000e+00 0.0000e+00 1.0000e+00
        3 -1    0    0  501    0 +0.0000000000e+00 -0.0000000000e+00 -4.3512292977e+02 4.3512292977e+02 0.0000000000e+00 0.0000e+00 -1.0000e+00
       23  1    1    2    0    0 +0.0000000000e+00 -0.0000000000e+00 -4.3034539980e+02 4.3990045974e+02 9.1188000000e+01 0.0000e+00 1.0000e+00
<mgrwt>
<rscale>  0 0.91188000E+02</rscale>
<asrwt>0</asrwt>
<pdfrwt beam="2">  1        3 0.66941980E-01 0.91188000E+02</pdfrwt>
<pdfrwt beam="1">  1       -3 0.73500471E-03 0.91188000E+02</pdfrwt>
<totfact> 0.19457604E+04</totfact>
</mgrwt>
</event>
<event>
 3      1 +4.2044000e+04 9.11880000e+01 7.54677100e-03 1.30000000e-01
       -2 -1    0    0    0  501 -0.0000000000e+00 +0.0000000000e+00 +9.3740586205e+00 9.3740586205e+00 0.0000000000e+00 0.0000e+00 1.0000e+00
        2 -1    0    0  501    0 +0.0000000000e+00 -0.0000000000e+00 -2.2176230384e+02 2.2176230384e+02 0.0000000000e+00 0.0000e+00 -1.0000e+00
       23  1    1    2    0    0 +0.0000000000e+00 -0.0000000000e+00 -2.1238824522e+02 2.3113636246e+02 9.1188000000e+01 0.0000e+00 1.0000e+00
<mgrwt>
<rscale>  0 0.91188000E+02</rscale>
<asrwt>0</asrwt>
<pdfrwt beam="2">  1        2 0.34117276E-01 0.91188000E+02</pdfrwt>
<pdfrwt beam="1">  1       -2 0.14421629E-02 0.91188000E+02</pdfrwt>
<totfact> 0.16055618E+05</totfact>
</mgrwt>
</event>
<event>
 3      1 +4.2044000e+04 9.11880000e+01 7.54677100e-03 1.30000000e-01
       -1 -1    0    0    0  501 -0.0000000000e+00 +0.0000000000e+00 +4.7483374874e+01 4.7483374874e+01 0.0000000000e+00 0.0000e+00 1.0000e+00
        1 -1    0    0  501    0 +0.0000000000e+00 -0.0000000000e+00 -4.3779803805e+01 4.3779803805e+01 0.0000000000e+00 0.0000e+00 -1.0000e+00
       23  1    1    2    0    0 +0.0000000000e+00 -0.0000000000e+00 +3.7035710689e+00 9.1263178679e+01 9.1188000000e+01 0.0000e+00 1.0000e+00
<mgrwt>
<rscale>  0 0.91188000E+02</rscale>
<asrwt>0</asrwt>
<pdfrwt beam="2">  1        1 0.67353545E-02 0.91188000E+02</pdfrwt>
<pdfrwt beam="1">  1       -1 0.73051346E-02 0.91188000E+02</pdfrwt>
<totfact> 0.91878892E+04</totfact>
</mgrwt>
</event>
<event>
 3      1 +4.2044000e+04 9.11880000e+01 7.54677100e-03 1.30000000e-01
        3 -1    0    0  501    0 +0.0000000000e+00 +0.0000000000e+00 +1.5072421633e+02 1.5072421633e+02 0.0000000000e+00 0.0000e+00 -1.0000e+00
       -3 -1    0    0    0  501 -0.0000000000e+00 -0.0000000000e+00 -1.3792162179e+01 1.3792162179e+01 0.0000000000e+00 0.0000e+00 1.0000e+00
       23  1    1    2    0    0 +0.0000000000e+00 +0.0000000000e+00 +1.3693205415e+02 1.6451637851e+02 9.1188000000e+01 0.0000e+00 -1.0000e+00
<mgrwt>
<rscale>  0 0.91188000E+02</rscale>
<asrwt>0</asrwt>
<pdfrwt beam="1">  1        3 0.23188340E-01 0.91188000E+02</pdfrwt>
<pdfrwt beam="2">  1       -3 0.21218712E-02 0.91188000E+02</pdfrwt>
<totfact> 0.30431819E+04</totfact>
</mgrwt>
</event>
<event>
 3      1 +4.2044000e+04 9.11880000e+01 7.54677100e-03 1.30000000e-01
        2 -1    0    0  501    0 +0.0000000000e+00 +0.0000000000e+00 +4.0480973317e+02 4.0480973317e+02 0.0000000000e+00 0.0000e+00 -1.0000e+00
       -2 -1    0    0    0  501 -0.0000000000e+00 -0.0000000000e+00 -5.1352837288e+00 5.1352837288e+00 0.0000000000e+00 0.0000e+00 1.0000e+00
       23  1    1    2    0    0 +0.0000000000e+00 +0.0000000000e+00 +3.9967444944e+02 4.0994501690e+02 9.1188000000e+01 0.0000e+00 -1.0000e+00
<mgrwt>
<rscale>  0 0.91188000E+02</rscale>
<asrwt>0</asrwt>
<pdfrwt beam="1">  1        2 0.62278396E-01 0.91188000E+02</pdfrwt>
<pdfrwt beam="2">  1       -2 0.79004397E-03 0.91188000E+02</pdfrwt>
<totfact> 0.20041308E+05</totfact>
</mgrwt>
</event>
<event>
 3      1 +4.2044000e+04 9.11880000e+01 7.54677100e-03 1.30000000e-01
       -2 -1    0    0    0  501 -0.0000000000e+00 +0.0000000000e+00 +5.1375725684e+00 5.1375725684e+00 0.0000000000e+00 0.0000e+00 1.0000e+00
        2 -1    0    0  501    0 +0.0000000000e+00 -0.0000000000e+00 -4.0462938641e+02 4.0462938641e+02 0.0000000000e+00 0.0000e+00 -1.0000e+00
       23  1    1    2    0    0 +0.0000000000e+00 -0.0000000000e+00 -3.9949181384e+02 4.0976695898e+02 9.1188000000e+01 0.0000e+00 1.0000e+00
<mgrwt>
<rscale>  0 0.91188000E+02</rscale>
<asrwt>0</asrwt>
<pdfrwt beam="2">  1        2 0.62250669E-01 0.91188000E+02</pdfrwt>
<pdfrwt beam="1">  1       -2 0.79039585E-03 0.91188000E+02</pdfrwt>
<totfact> 0.20038129E+05</totfact>
</mgrwt>
</event>
<event>
 3      1 +4.2044000e+04 9.11880000e+01 7.54677100e-03 1.30000000e-01
        1 -1    0    0  501    0 +0.0000000000e+00 +0.0000000000e+00 +6.5675270622e+02 6.5675270622e+02 0.0000000000e+00 0.0000e+00 -1.0000e+00
       -1 -1    0    0    0  501 -0.0000000000e+00 -0.0000000000e+00 -3.1652900952e+00 3.1652900952e+00 0.0000000000e+00 0.0000e+00 1.0000e+00
       23  1    1    2    0    0 +0.0000000000e+00 +0.0000000000e+00 +6.5358741612e+02 6.5991799631e+02 9.1188000000e+01 0.0000e+00 -1.0000e+00
<mgrwt>
<rscale>  0 0.91188000E+02</rscale>
<asrwt>0</asrwt>
<pdfrwt beam="1">  1        1 0.10103877E+00 0.91188000E+02</pdfrwt>
<pdfrwt beam="2">  1       -1 0.48696823E-03 0.91188000E+02</pdfrwt>
<totfact> 0.14207107E+05</totfact>
</mgrwt>
</event>
<event>
 3      1 +4.2044000e+04 9.11880000e+01 7.54677100e-03 1.30000000e-01
       -2 -1    0    0    0  501 -0.0000000000e+00 +0.0000000000e+00 +1.1316647057e+00 1.1316647057e+00 0.0000000000e+00 0.0000e+00 -1.0000e+00
        2 -1    0    0  501    0 +0.0000000000e+00 -0.0000000000e+00 -1.8369511973e+03 1.8369511973e+03 0.0000000000e+00 0.0000e+00 1.0000e+00
       23  1    1    2    0    0 +0.0000000000e+00 -0.0000000000e+00 -1.8358195326e+03 1.8380828620e+03 9.1188000000e+01 0.0000e+00 -1.0000e+00
<mgrwt>
<rscale>  0 0.91188000E+02</rscale>
<asrwt>0</asrwt>
<pdfrwt beam="2">  1        2 0.28260843E+00 0.91188000E+02</pdfrwt>
<pdfrwt beam="1">  1       -2 0.17410192E-03 0.91188000E+02</pdfrwt>
<totfact> 0.21116819E+05</totfact>
</mgrwt>
</event>
<event>
 3      1 +4.2044000e+04 9.11880000e+01 7.54677100e-03 1.30000000e-01
        1 -1    0    0  501    0 +0.0000000000e+00 +0.0000000000e+00 +1.5180787732e+02 1.5180787732e+02 0.0000000000e+00 0.0000e+00 -1.0000e+00
       -1 -1    0    0    0  501 -0.0000000000e+00 -0.0000000000e+00 -1.3693708605e+01 1.3693708605e+01 0.0000000000e+00 0.0000e+00 1.0000e+00
       23  1    1    2    0    0 +0.0000000000e+00 +0.0000000000e+00 +1.3811416872e+02 1.6550158593e+02 9.1188000000e+01 0.0000e+00 -1.0000e+00
<mgrwt>
<rscale>  0 0.91188000E+02</rscale>
<asrwt>0</asrwt>
<pdfrwt beam="1">  1        1 0.23355057E-01 0.91188000E+02</pdfrwt>
<pdfrwt beam="2">  1       -1 0.21067245E-02 0.91188000E+02</pdfrwt>
<totfact> 0.11234315E+05</totfact>
</mgrwt>
</event>
<event>
 3      1 +4.2044000e+04 9.11880000e+01 7.54677100e-03 1.30000000e-01
        1 -1    0    0  501    0 +0.0000000000e+00 +0.0000000000e+00 +1.5742458291e+02 1.5742458291e+02 0.0000000000e+00 0.0000e+00 -1.0000e+00
       -1 -1    0    0    0  501 -0.0000000000e+00 -0.0000000000e+00 -1.3205134786e+01 1.3205134786e+01 0.0000000000e+00 0.0000e+00 1.0000e+00
       23  1    1    2    0    0 +0.0000000000e+00 +0.0000000000e+00 +1.4421944813e+02 1.7062971770e+02 9.1188000000e+01 0.0000e+00 -1.0000e+00
<mgrwt>
<rscale>  0 0.91188000E+02</rscale>
<asrwt>0</asrwt>
<pdfrwt beam="1">  1        1 0.24219165E-01 0.91188000E+02</pdfrwt>
<pdfrwt beam="2">  1       -1 0.20315593E-02 0.91188000E+02</pdfrwt>
<totfact> 0.11310087E+05</totfact>
</mgrwt>
</event>
<event>
 3      1 +4.2044000e+04 9.11880000e+01 7.54677100e-03 1.30000000e-01
        2 -1    0    0  501    0 +0.0000000000e+00 +0.0000000000e+00 +2.7449904199e+00 2.7449904199e+00 0.0000000000e+00 0.0000e+00 1.0000e+00
       -2 -1    0    0    0  501 -0.0000000000e+00 -0.0000000000e+00 -7.5731150859e+02 7.5731150859e+02 0.0000000000e+00 0.0000e+00 -1.0000e+00
       23  1    1    2    0    0 +0.0000000000e+00 +0.0000000000e+00 -7.5456651817e+02 7.6005649901e+02 9.1188000000e+01 0.0000e+00 1.0000e+00
<mgrwt>
<rscale>  0 0.91188000E+02</rscale>
<asrwt>0</asrwt>
<pdfrwt beam="1">  1        2 0.42230585E-03 0.91188000E+02</pdfrwt>
<pdfrwt beam="2">  1       -2 0.11650956E+00 0.91188000E+02</pdfrwt>
<totfact> 0.25188805E+04</totfact>
</mgrwt>
</event>
<event>
 3      1 +4.2044000e+04 9.11880000e+01 7.54677100e-03 1.30000000e-01
       -3 -1    0    0    0  501 -0.0000000000e+00 +0.0000000000e+00 +1.0271238837e+02 1.0271238837e+02 0.0000000000e+00 0.0000e+00 1.0000e+00
        3 -1    0    0  501    0 +0.0000000000e+00 -0.0000000000e+00 -2.0239163640e+01 2.0239163640e+01 0.0000000000e+00 0.0000e+00 -1.0000e+00
       23  1    1    2    0    0 +0.0000000000e+00 -0.0000000000e+00 +8.2473224729e+01 1.2295155201e+02 9.1188000000e+01 0.0000e+00 1.0000e+00
<mgrwt>
<rscale>  0 0.91188000E+02</rscale>
<asrwt>0</asrwt>
<pdfrwt beam="2">  1        3 0.31137175E-02 0.91188000E+02</pdfrwt>
<pdfrwt beam="1">  1       -3 0.15801906E-01 0.91188000E+02</pdfrwt>
<totfact> 0.33036338E+04</totfact>
</mgrwt>
</event>
<event>
 3      1 +4.2044000e+04 9.11880000e+01 7.54677100e-03 1.30000000e-01
       -1 -1    0    0    0  501 -0.0000000000e+00 +0.0000000000e+00 +4.5327401818e+00 4.5327401818e+00 0.0000000000e+00 0.0000e+00 1.0000e+00
        1 -1    0    0  501    0 +0.0000000000e+00 -0.0000000000e+00 -4.5862166209e+02 4.5862166209e+02 0.0000000000e+00 0.0000e+00 -1.0000e+00
       23  1    1    2    0    0 +0.0000000000e+00 -0.0000000000e+00 -4.5408892191e+02 4.6315440227e+02 9.1188000000e+01 0.0000e+00 1.0000e+00
<mgrwt>
<rscale>  0 0.91188000E+02</rscale>
<asrwt>0</asrwt>
<pdfrwt beam="2">  1        1 0.70557177E-01 0.91188000E+02</pdfrwt>
<pdfrwt beam="1">  1       -1 0.69734466E-03 0.91188000E+02</pdfrwt>
<totfact> 0.13768019E+05</totfact>
</mgrwt>
</event>
<event>
 3      1 +4.2044000e+04 9.11880000e+01 7.54677100e-03 1.30000000e-01
        1 -1    0    0  501    0 +0.0000000000e+00 +0.0000000000e+00 +9.9899789507e+02 9.9899789507e+02 0.0000000000e+00 0.0000e+00 -1.0000e+00
       -1 -1    0    0    0  501 -0.0000000000e+00 -0.0000000000e+00 -2.0808981143e+00 2.0808981143e+00 0.0000000000e+00 0.0000e+00 1.0000e+00
       23  1    1    2    0    0 +0.0000000000e+00 +0.0000000000e+00 +9.9691699696e+02 1.0010787932e+03 9.1188000000e+01 0.0000e+00 -1.0000e+00
<mgrwt>
<rscale>  0 0.91188000E+02</rscale>
<asrwt>0</asrwt>
<pdfrwt beam="1">  1        1 0.15369160E+00 0.91188000E+02</pdfrwt>
<pdfrwt beam="2">  1       -1 0.32013897E-03 0.91188000E+02</pdfrwt>
<totfact> 0.13600741E+05</totfact>
</mgrwt>
</event>
<event>
 3      1 +4.2044000e+04 9.11880000e+01 7.54677100e-03 1.30000000e-01
        3 -1    0    0  501    0 +0.0000000000e+00 +0.0000000000e+00 +1.7110212106e+02 1.7110212106e+02 0.0000000000e+00 0.0000e+00 1.0000e+00
       -3 -1    0    0    0  501 -0.0000000000e+00 -0.0000000000e+00 -1.2149544512e+01 1.2149544512e+01 0.0000000000e+00 0.0000e+00 -1.0000e+00
       23  1    1    2    0    0 +0.0000000000e+00 +0.0000000000e+00 +1.5895257655e+02 1.8325166557e+02 9.1188000000e+01 0.0000e+00 1.0000e+00
<mgrwt>
<rscale>  0 0.91188000E+02</rscale>
<asrwt>0</asrwt>
<pdfrwt beam="1">  1        3 0.26323401E-01 0.91188000E+02</pdfrwt>
<pdfrwt beam="2">  1       -3 0.18691608E-02 0.91188000E+02</pdfrwt>
<totfact> 0.29378161E+04</totfact>
</mgrwt>
</event>
<event>
 3      1 +4.2044000e+04 9.11880000e+01 7.54677100e-03 1.30000000e-01
        2 -1    0    0  501    0 +0.0000000000e+00 +0.0000000000e+00 +5.0836366338e+00 5.0836366338e+00 0.0000000000e+00 0.0000e+00 -1.0000e+00
       -2 -1    0    0    0  501 -0.0000000000e+00 -0.0000000000e+00 -4.0892238878e+02 4.0892238878e+02 0.0000000000e+00 0.0000e+00 1.0000e+00
       23  1    1    2    0    0 +0.0000000000e+00 +0.0000000000e+00 -4.0383875215e+02 4.1400602541e+02 9.1188000000e+01 0.0000e+00 -1.0000e+00
<mgrwt>
<rscale>  0 0.91188000E+02</rscale>
<asrwt>0</asrwt>
<pdfrwt beam="1">  1        2 0.78209798E-03 0.91188000E+02</pdfrwt>
<pdfrwt beam="2">  1       -2 0.62911134E-01 0.91188000E+02</pdfrwt>
<totfact> 0.42042329E+04</totfact>
</mgrwt>
</event>
<event>
 3      1 +4.2044000e+04 9.11880000e+01 7.54677100e-03 1.30000000e-01
        1 -1    0    0  501    0 +0.0000000000e+00 +0.0000000000e+00 +2.8980221938e+02 2.8980221938e+02 0.0000000000e+00 0.0000e+00 -1.0000e+00
       -1 -1    0    0    0  501 -0.0000000000e+00 -0.0000000000e+00 -7.1732122701e+00 7.1732122701e+00 0.0000000000e+00 0.0000e+00 1.0000e+00
       23  1    1    2    0    0 +0.0000000000e+00 +0.0000000000e+00 +2.8262900711e+02 2.9697543165e+02 9.1188000000e+01 0.0000e+00 -1.0000e+00
<mgrwt>
<rscale>  0 0.91188000E+02</rscale>
<asrwt>0</asrwt>
<pdfrwt beam="1">  1        1 0.44584948E-01 0.91188000E+02</pdfrwt>
<pdfrwt beam="2">  1       -1 0.11035713E-02 0.91188000E+02</pdfrwt>
<totfact> 0.12723448E+05</totfact>
</mgrwt>
</event>
<event>
 3      1 +4.2044000e+04 9.11880000e+01 7.54677100e-03 1.30000000e-01
        2 -1    0    0  501    0 +0.0000000000e+00 +0.0000000000e+00 +7.7308036727e+01 7.7308036727e+01 0.0000000000e+00 0.0000e+00 -1.0000e+00
       -2 -1    0    0    0  501 -0.0000000000e+00 -0.0000000000e+00 -2.6889996487e+01 2.6889996487e+01 0.0000000000e+00 0.0000e+00 1.0000e+00
       23  1    1    2    0    0 +0.0000000000e+00 +0.0000000000e+00 +5.0418040241e+01 1.0419803321e+02 9.1188000000e+01 0.0000e+00 -1.0000e+00
<mgrwt>
<rscale>  0 0.91188000E+02</rscale>
<asrwt>0</asrwt>
<pdfrwt beam="1">  1        2 0.11893544E-01 0.91188000E+02</pdfrwt>
<pdfrwt beam="2">  1       -2 0.41369226E-02 0.91188000E+02</pdfrwt>
<totfact> 0.11370280E+05</totfact>
</mgrwt>
</event>
<event>
 3      1 +4.2044000e+04 9.11880000e+01 7.54677100e-03 1.30000000e-01
       -2 -1    0    0    0  501 -0.0000000000e+00 +0.0000000000e+00 +2.9578515236e+00 2.9578515236e+00 0.0000000000e+00 0.0000e+00 1.0000e+00
        2 -1    0    0  501    0 +0.0000000000e+00 -0.0000000000e+00 -7.0281176029e+02 7.0281176029e+02 0.0000000000e+00 0.0000e+00 -1.0000e+00
       23  1    1    2    0    0 +0.0000000000e+00 -0.0000000000e+00 -6.9985390877e+02 7.0576961182e+02 9.1188000000e+01 0.0000e+00 1.0000e+00
<mgrwt>
<rscale>  0 0.91188000E+02</rscale>
<asrwt>0</asrwt>
<pdfrwt beam="2">  1        2 0.10812485E+00 0.91188000E+02</pdfrwt>
<pdfrwt beam="1">  1       -2 0.45505423E-03 0.91188000E+02</pdfrwt>
<totfact> 0.23728741E+05</totfact>
</mgrwt>
</event>
<event>
 3      1 +4.2044000e+04 9.11880000e+01 7.54677100e-03 1.30000000e-01
        1 -1    0    0  501    0 +0.0000000000e+00 +0.0000000000e+00 +1.0636529778e+01 1.0636529778e+01 0.0000000000e+00 0.0000e+00 -1.0000e+00
       -1 -1    0    0    0  501 -0.0000000000e+00 -0.0000000000e+00 -1.9544088902e+02 1.9544088902e+02 0.0000000000e+00 0.0000e+00 1.0000e+00
       23  1    1    2    0    0 +0.0000000000e+00 +0.0000000000e+00 -1.8480435924e+02 2.0607741880e+02 9.1188000000e+01 0.0000e+00 -1.0000e+00
<mgrwt>
<rscale>  0 0.91188000E+02</rscale>
<asrwt>0</asrwt>
<pdfrwt beam="1">  1        1 0.16363893E-02 0.91188000E+02</pdfrwt>
<pdfrwt beam="2">  1       -1 0.30067827E-01 0.91188000E+02</pdfrwt>
<totfact> 0.69857931E+04</totfact>
</mgrwt>
</event>
<event>
 3      1 +4.2044000e+04 9.11880000e+01 7.54677100e-03 1.30000000e-01
       -2 -1    0    0    0  501 -0.0000000000e+00 +0.0000000000e+00 +1.8883694430e+01 1.8883694430e+01 0.0000000000e+00 0.0000e+00 1.0000e+00
        2 -1    0    0  501    0 +0.0000000000e+00 -0.0000000000e+00 -1.1008507068e+02 1.1008507068e+02 0.0000000000e+00 0.0000e+00 -1.0000e+00
       23  1    1    2    0    0 +0.0000000000e+00 -0.0000000000e+00 -9.1201376248e+01 1.2896876511e+02 9.1188000000e+01 0.0000e+00 1.0000e+00
<mgrwt>
<rscale>  0 0.91188000E+02</rscale>
<asrwt>0</asrwt>
<pdfrwt beam="2">  1        2 0.16936165E-01 0.91188000E+02</pdfrwt>
<pdfrwt beam="1">  1       -2 0.29051837E-02 0.91188000E+02</pdfrwt>
<totfact> 0.12632610E+05</totfact>
</mgrwt>
</event>
<event>
 3      1 +4.2044000e+04 9.11880000e+01 7.54677100e-03 1.30000000e-01
       -1 -1    0    0    0  501 -0.0000000000e+00 +0.0000000000e+00 +2.6943976793e+01 2.6943976793e+01 0.0000000000e+00 0.0000e+00 1.0000e+00
        1 -1    0    0  501    0 +0.0000000000e+00 -0.0000000000e+00 -7.7153155673e+01 7.7153155673e+01 0.0000000000e+00 0.0000e+00 -1.0000e+00
       23  1    1    2    0    0 +0.0000000000e+00 -0.0000000000e+00 -5.0209178880e+01 1.0409713247e+02 9.1188000000e+01 0.0000e+00 1.0000e+00
<mgrwt>
<rscale>  0 0.91188000E+02</rscale>
<asrwt>0</asrwt>
<pdfrwt beam="2">  1        1 0.11869716E-01 0.91188000E+02</pdfrwt>
<pdfrwt beam="1">  1       -1 0.41452273E-02 0.91188000E+02</pdfrwt>
<totfact> 0.10013796E+05</totfact>
</mgrwt>
</event>
<event>
 3      1 +4.2044000e+04 9.11880000e+01 7.54677100e-03 1.30000000e-01
        1 -1    0    0  501    0 +0.0000000000e+00 +0.0000000000e+00 +1.7050166298e+02 1.7050166298e+02 0.0000000000e+00 0.0000e+00 -1.0000e+00
       -1 -1    0    0    0  501 -0.0000000000e+00 -0.0000000000e+00 -1.2192331733e+01 1.2192331733e+01 0.0000000000e+00 0.0000e+00 1.0000e+00
       23  1    1    2    0    0 +0.0000000000e+00 +0.0000000000e+00 +1.5830933124e+02 1.8269399471e+02 9.1188000000e+01 0.0000e+00 -1.0000e+00
<mgrwt>
<rscale>  0 0.91188000E+02</rscale>
<asrwt>0</asrwt>
<pdfrwt beam="1">  1        1 0.26231023E-01 0.91188000E+02</pdfrwt>
<pdfrwt beam="2">  1       -1 0.18757435E-02 0.91188000E+02</pdfrwt>
<totfact> 0.11480139E+05</totfact>
</mgrwt>
</event>
<event>
 3      1 +4.2044000e+04 9.11880000e+01 7.54677100e-03 1.30000000e-01
        2 -1    0    0  501    0 +0.0000000000e+00 +0.0000000000e+00 +2.6176832697e+02 2.6176832697e+02 0.0000000000e+00 0.0000e+00 1.0000e+00
       -2 -1    0    0    0  501 -0.0000000000e+00 -0.0000000000e+00 -7.9414223258e+00 7.9414223258e+00 0.0000000000e+00 0.0000e+00 -1.0000e+00
       23  1    1    2    0    0 +0.0000000000e+00 +0.0000000000e+00 +2.5382690465e+02 2.6970974930e+02 9.1188000000e+01 0.0000e+00 1.0000e+00
<mgrwt>
<rscale>  0 0.91188000E+02</rscale>
<asrwt>0</asrwt>
<pdfrwt beam="1">  1        2 0.40272044E-01 0.91188000E+02</pdfrwt>
<pdfrwt beam="2">  1       -2 0.12217575E-02 0.91188000E+02</pdfrwt>
<totfact> 0.17069693E+05</totfact>
</mgrwt>
</event>
<event>
 3      1 +4.2044000e+04 9.11880000e+01 7.54677100e-03 1.30000000e-01
        2 -1    0    0  501    0 +0.0000000000e+00 +0.0000000000e+00 +1.1467066791e+03 1.1467066791e+03 0.0000000000e+00 0.0000e+00 -1.0000e+00
       -2 -1    0    0    0  501 -0.0000000000e+00 -0.0000000000e+00 -1.8128549122e+00 1.8128549122e+00 0.0000000000e+00 0.0000e+00 1.0000e+00
       23  1    1    2    0    0 +0.0000000000e+00 +0.0000000000e+00 +1.1448938242e+03 1.1485195340e+03 9.1188000000e+01 0.0000e+00 -1.0000e+00
<mgrwt>
<rscale>  0 0.91188000E+02</rscale>
<asrwt>0</asrwt>
<pdfrwt beam="1">  1        2 0.17641583E+00 0.91188000E+02</pdfrwt>
<pdfrwt beam="2">  1       -2 0.27890167E-03 0.91188000E+02</pdfrwt>
<totfact> 0.24960301E+05</totfact>
</mgrwt>
</event>
<event>
 3      1 +4.2044000e+04 9.11880000e+01 7.54677100e-03 1.30000000e-01
        1 -1    0    0  501    0 +0.0000000000e+00 +0.0000000000e+00 +2.6346456827e+03 2.6346456827e+03 0.0000000000e+00 0.0000e+00 -1.0000e+00
       -1 -1    0    0    0  501 -0.0000000000e+00 -0.0000000000e+00 -7.8902937486e-01 7.8902937486e-01 0.0000000000e+00 0.0000e+00 1.0000e+00
       23  1    1    2    0    0 +0.0000000000e+00 +0.0000000000e+00 +2.6338566533e+03 2.6354347121e+03 9.1188000000e+01 0.0000e+00 -1.0000e+00
<mgrwt>
<rscale>  0 0.91188000E+02</rscale>
<asrwt>0</asrwt>
<pdfrwt beam="1">  1        1 0.40532306E+00 0.91188000E+02</pdfrwt>
<pdfrwt beam="2">  1       -1 0.12139124E-03 0.91188000E+02</pdfrwt>
<totfact> 0.45983796E+04</totfact>
</mgrwt>
</event>
<event>
 3      1 +4.2044000e+04 9.11880000e+01 7.54677100e-03 1.30000000e-01
        1 -1    0    0  501    0 +0.0000000000e+00 +0.0000000000e+00 +6.4357104562e+01 6.4357104562e+01 0.0000000000e+00 0.0000e+00 -1.0000e+00
       -1 -1    0    0    0  501 -0.0000000000e+00 -0.0000000000e+00 -3.2301217560e+01 3.2301217560e+01 0.0000000000e+00 0.0000e+00 1.0000e+00
       23  1    1    2    0    0 +0.0000000000e+00 +0.0000000000e+00 +3.2055887001e+01 9.6658322122e+01 9.1188000000e+01 0.0000e+00 -1.0000e+00
<mgrwt>
<rscale>  0 0.91188000E+02</rscale>
<asrwt>0</asrwt>
<pdfrwt beam="1">  1        1 0.99010930E-02 0.91188000E+02</pdfrwt>
<pdfrwt beam="2">  1       -1 0.49694181E-02 0.91188000E+02</pdfrwt>
<totfact> 0.97370015E+04</totfact>
</mgrwt>
</event>
<event>
 3      1 +4.2044000e+04 9.11880000e+01 7.54677100e-03 1.30000000e-01
        4 -1    0    0  501    0 +0.0000000000e+00 +0.0000000000e+00 +2.0933416086e+02 2.0933416086e+02 0.0000000000e+00 0.0000e+00 1.0000e+00
       -4 -1    0    0    0  501 -0.0000000000e+00 -0.0000000000e+00 -9.9305953096e+00 9.9305953096e+00 0.0000000000e+00 0.0000e+00 -1.0000e+00
       23  1    1    2    0    0 +0.0000000000e+00 +0.0000000000e+00 +1.9940356555e+02 2.1926475617e+02 9.1188000000e+01 0.0000e+00 1.0000e+00
<mgrwt>
<rscale>  0 0.91188000E+02</rscale>
<asrwt>0</asrwt>
<pdfrwt beam="1">  1        4 0.32205252E-01 0.91188000E+02</pdfrwt>
<pdfrwt beam="2">  1       -4 0.15277840E-02 0.91188000E+02</pdfrwt>
<totfact> 0.20600805E+04</totfact>
</mgrwt>
</event>
<event>
 3      1 +4.2044000e+04 9.11880000e+01 7.54677100e-03 1.30000000e-01
       -2 -1    0    0    0  501 -0.0000000000e+00 +0.0000000000e+00 +1.5993298532e+00 1.5993298532e+00 0.0000000000e+00 0.0000e+00 1.0000e+00
        2 -1    0    0  501    0 +0.0000000000e+00 -0.0000000000e+00 -1.2998024341e+03 1.2998024341e+03 0.0000000000e+00 0.0000e+00 -1.0000e+00
       23  1    1    2    0    0 +0.0000000000e+00 -0.0000000000e+00 -1.2982031042e+03 1.3014017639e+03 9.1188000000e+01 0.0000e+00 1.0000e+00
<mgrwt>
<rscale>  0 0.91188000E+02</rscale>
<asrwt>0</asrwt>
<pdfrwt beam="2">  1        2 0.19996934E+00 0.91188000E+02</pdfrwt>
<pdfrwt beam="1">  1       -2 0.24605108E-03 0.91188000E+02</pdfrwt>
<totfact> 0.24562219E+05</totfact>
</mgrwt>
</event>
<event>
 3      1 +4.2044000e+04 9.11880000e+01 7.54677100e-03 1.30000000e-01
        1 -1    0    0  501    0 +0.0000000000e+00 +0.0000000000e+00 +5.6393365044e+02 5.6393365044e+02 0.0000000000e+00 0.0000e+00 -1.0000e+00
       -1 -1    0    0    0  501 -0.0000000000e+00 -0.0000000000e+00 -3.6862720187e+00 3.6862720187e+00 0.0000000000e+00 0.0000e+00 1.0000e+00
       23  1    1    2    0    0 +0.0000000000e+00 +0.0000000000e+00 +5.6024737842e+02 5.6761992246e+02 9.1188000000e+01 0.0000e+00 -1.0000e+00
<mgrwt>
<rscale>  0 0.91188000E+02</rscale>
<asrwt>0</asrwt>
<pdfrwt beam="1">  1        1 0.86758955E-01 0.91188000E+02</pdfrwt>
<pdfrwt beam="2">  1       -1 0.56711922E-03 0.91188000E+02</pdfrwt>
<totfact> 0.14091862E+05</totfact>
</mgrwt>
</event>
<event>
 3      1 +4.2044000e+04 9.11880000e+01 7.54677100e-03 1.30000000e-01
       -2 -1    0    0    0  501 -0.0000000000e+00 +0.0000000000e+00 +5.1120080881e-01 5.1120080881e-01 0.0000000000e+00 0.0000e+00 1.0000e+00
        2 -1    0    0  501    0 +0.0000000000e+00 -0.0000000000e+00 -4.0665288477e+03 4.0665288477e+03 0.0000000000e+00 0.0000e+00 -1.0000e+00
       23  1    1    2    0    0 +0.0000000000e+00 -0.0000000000e+00 -4.0660176469e+03 4.0670400485e+03 9.1188000000e+01 0.0000e+00 1.0000e+00
<mgrwt>
<rscale>  0 0.91188000E+02</rscale>
<asrwt>0</asrwt>
<pdfrwt beam="2">  1        2 0.62561850E+00 0.91188000E+02</pdfrwt>
<pdfrwt beam="1">  1       -2 0.78646445E-04 0.91188000E+02</pdfrwt>
<totfact> 0.31367466E+04</totfact>
</mgrwt>
</event>
<event>
 3      1 +4.2044000e+04 9.11880000e+01 7.54677100e-03 1.30000000e-01
        2 -1    0    0  501    0 +0.0000000000e+00 +0.0000000000e+00 +2.4552889133e+03 2.4552889133e+03 0.0000000000e+00 0.0000e+00 -1.0000e+00
       -2 -1    0    0    0  501 -0.0000000000e+00 -0.0000000000e+00 -8.4666730042e-01 8.4666730042e-01 0.0000000000e+00 0.0000e+00 1.0000e+00
       23  1    1    2    0    0 +0.0000000000e+00 +0.0000000000e+00 +2.4544422460e+03 2.4561355806e+03 9.1188000000e+01 0.0000e+00 -1.0000e+00
<mgrwt>
<rscale>  0 0.91188000E+02</rscale>
<asrwt>0</asrwt>
<pdfrwt beam="1">  1        2 0.37773106E+00 0.91188000E+02</pdfrwt>
<pdfrwt beam="2">  1       -2 0.13025847E-03 0.91188000E+02</pdfrwt>
<totfact> 0.15287542E+05</totfact>
</mgrwt>
</event>
<event>
 3      1 +4.2044000e+04 9.11880000e+01 7.54677100e-03 1.30000000e-01
       -1 -1    0    0    0  501 -0.0000000000e+00 +0.0000000000e+00 +4.6313948876e+01 4.6313948876e+01 0.0000000000e+00 0.0000e+00 1.0000e+00
        1 -1    0    0  501    0 +0.0000000000e+00 -0.0000000000e+00 -4.4885242706e+01 4.4885242706e+01 0.0000000000e+00 0.0000e+00 -1.0000e+00
       23  1    1    2    0    0 +0.0000000000e+00 -0.0000000000e+00 +1.4287061698e+00 9.1199191583e+01 9.1188000000e+01 0.0000e+00 1.0000e+00
<mgrwt>
<rscale>  0 0.91188000E+02</rscale>
<asrwt>0</asrwt>
<pdfrwt beam="2">  1        1 0.69054220E-02 0.91188000E+02</pdfrwt>
<pdfrwt beam="1">  1       -1 0.71252229E-02 0.91188000E+02</pdfrwt>
<totfact> 0.92224580E+04</totfact>
</mgrwt>
</event>
<event>
 3      1 +4.2044000e+04 9.11880000e+01 7.54677100e-03 1.30000000e-01
        2 -1    0    0  501    0 +0.0000000000e+00 +0.0000000000e+00 +6.7209077192e+02 6.7209077192e+02 0.0000000000e+00 0.0000e+00 1.0000e+00
       -2 -1    0    0    0  501 -0.0000000000e+00 -0.0000000000e+00 -3.0930536809e+00 3.0930536809e+00 0.0000000000e+00 0.0000e+00 -1.0000e+00
       23  1    1    2    0    0 +0.0000000000e+00 +0.0000000000e+00 +6.6899771824e+02 6.7518382560e+02 9.1188000000e+01 0.0000e+00 1.0000e+00
<mgrwt>
<rscale>  0 0.91188000E+02</rscale>
<asrwt>0</asrwt>
<pdfrwt beam="1">  1        2 0.10339846E+00 0.91188000E+02</pdfrwt>
<pdfrwt beam="2">  1       -2 0.47585495E-03 0.91188000E+02</pdfrwt>
<totfact> 0.23475925E+05</totfact>
</mgrwt>
</event>
<event>
 3      1 +4.2044000e+04 9.11880000e+01 7.54677100e-03 1.30000000e-01
       -1 -1    0    0    0  501 -0.0000000000e+00 +0.0000000000e+00 +8.1003686080e+01 8.1003686080e+01 0.0000000000e+00 0.0000e+00 1.0000e+00
        1 -1    0    0  501    0 +0.0000000000e+00 -0.0000000000e+00 -2.5663188141e+01 2.5663188141e+01 0.0000000000e+00 0.0000e+00 -1.0000e+00
       23  1    1    2    0    0 +0.0000000000e+00 -0.0000000000e+00 +5.5340497939e+01 1.0666687422e+02 9.1188000000e+01 0.0000e+00 1.0000e+00
<mgrwt>
<rscale>  0 0.91188000E+02</rscale>
<asrwt>0</asrwt>
<pdfrwt beam="2">  1        1 0.39481828E-02 0.91188000E+02</pdfrwt>
<pdfrwt beam="1">  1       -1 0.12462105E-01 0.91188000E+02</pdfrwt>
<totfact> 0.84445445E+04</totfact>
</mgrwt>
</event>
<event>
 3      1 +4.2044000e+04 9.11880000e+01 7.54677100e-03 1.30000000e-01
       -1 -1    0    0    0  501 -0.0000000000e+00 +0.0000000000e+00 +9.2623632462e+00 9.2623632462e+00 0.0000000000e+00 0.0000e+00 1.0000e+00
        1 -1    0    0  501    0 +0.0000000000e+00 -0.0000000000e+00 -2.2443654829e+02 2.2443654829e+02 0.0000000000e+00 0.0000e+00 -1.0000e+00
       23  1    1    2    0    0 +0.0000000000e+00 -0.0000000000e+00 -2.1517418504e+02 2.3369891154e+02 9.1188000000e+01 0.0000e+00 1.0000e+00
<mgrwt>
<rscale>  0 0.91188000E+02</rscale>
<asrwt>0</asrwt>
<pdfrwt beam="2">  1        1 0.34528699E-01 0.91188000E+02</pdfrwt>
<pdfrwt beam="1">  1       -1 0.14249790E-02 0.91188000E+02</pdfrwt>
<totfact> 0.12105471E+05</totfact>
</mgrwt>
</event>
<event>
 3      1 +4.2044000e+04 9.11880000e+01 7.54677100e-03 1.30000000e-01
        1 -1    0    0  501    0 +0.0000000000e+00 +0.0000000000e+00 +1.9855590710e+01 1.9855590710e+01 0.0000000000e+00 0.0000e+00 -1.0000e+00
       -1 -1    0    0    0  501 -0.0000000000e+00 -0.0000000000e+00 -1.0469659988e+02 1.0469659988e+02 0.0000000000e+00 0.0000e+00 1.0000e+00
       23  1    1    2    0    0 +0.0000000000e+00 +0.0000000000e+00 -8.4841009172e+01 1.2455219059e+02 9.1188000000e+01 0.0000e+00 -1.0000e+00
<mgrwt>
<rscale>  0 0.91188000E+02</rscale>
<asrwt>0</asrwt>
<pdfrwt beam="1">  1        1 0.30547062E-02 0.91188000E+02</pdfrwt>
<pdfrwt beam="2">  1       -1 0.16107169E-01 0.91188000E+02</pdfrwt>
<totfact> 0.80645860E+04</totfact>
</mgrwt>
</event>
<event>
 3      1 +4.2044000e+04 9.11880000e+01 7.54677100e-03 1.30000000e-01
        2 -1    0    0  501    0 +0.0000000000e+00 +0.0000000000e+00 +2.3678889492e+03 2.3678889492e+03 0.0000000000e+00 0.0000e+00 -1.0000e+00
       -2 -1    0    0    0  501 -0.0000000000e+00 -0.0000000000e+00 -8.7791821347e-01 8.7791821347e-01 0.0000000000e+00 0.0000e+00 1.0000e+00
       23  1    1    2    0    0 +0.0000000000e+00 +0.0000000000e+00 +2.3670110310e+03 2.3687668674e+03 9.1188000000e+01 0.0000e+00 -1.0000e+00
<mgrwt>
<rscale>  0 0.91188000E+02</rscale>
<asrwt>0</asrwt>
<pdfrwt beam="1">  1        2 0.36428550E+00 0.91188000E+02</pdfrwt>
<pdfrwt beam="2">  1       -2 0.13506624E-03 0.91188000E+02</pdfrwt>
<totfact> 0.16144457E+05</totfact>
</mgrwt>
</event>
<event>
 3      1 +4.2044000e+04 9.11880000e+01 7.54677100e-03 1.30000000e-01
       -1 -1    0    0    0  501 -0.0000000000e+00 +0.0000000000e+00 +8.0202030450e+01 8.0202030450e+01 0.0000000000e+00 0.0000e+00 1.0000e+00
        1 -1    0    0  501    0 +0.0000000000e+00 -0.0000000000e+00 -2.5919703333e+01 2.5919703333e+01 0.0000000000e+00 0.0000e+00 -1.0000e+00
       23  1    1    2    0    0 +0.0000000000e+00 -0.0000000000e+00 +5.4282327117e+01 1.0612173378e+02 9.1188000000e+01 0.0000e+00 1.0000e+00
<mgrwt>
<rscale>  0 0.91188000E+02</rscale>
<asrwt>0</asrwt>
<pdfrwt beam="2">  1        1 0.39876467E-02 0.91188000E+02</pdfrwt>
<pdfrwt beam="1">  1       -1 0.12338774E-01 0.91188000E+02</pdfrwt>
<totfact> 0.84587973E+04</totfact>
</mgrwt>
</event>
<event>
 3      1 +4.2044000e+04 9.11880000e+01 7.54677100e-03 1.30000000e-01
       -3 -1    0    0    0  501 -0.0000000000e+00 +0.0000000000e+00 +2.5574743241e+01 2.5574743241e+01 0.0000000000e+00 0.0000e+00 1.0000e+00
        3 -1    0    0  501    0 +0.0000000000e+00 -0.0000000000e+00 -8.1283820386e+01 8.1283820386e+01 0.0000000000e+00 0.0000e+00 -1.0000e+00
       23  1    1    2    0    0 +0.0000000000e+00 -0.0000000000e+00 -5.5709077145e+01 1.0685856363e+02 9.1188000000e+01 0.0000e+00 1.0000e+00
<mgrwt>
<rscale>  0 0.91188000E+02</rscale>
<asrwt>0</asrwt>
<pdfrwt beam="2">  1        3 0.12505203E-01 0.91188000E+02</pdfrwt>
<pdfrwt beam="1">  1       -3 0.39345759E-02 0.91188000E+02</pdfrwt>
<totfact> 0.34158481E+04</totfact>
</mgrwt>
</event>
<event>
 3      1 +4.2044000e+04 9.11880000e+01 7.54677100e-03 1.30000000e-01
        1 -1    0    0  501    0 +0.0000000000e+00 +0.0000000000e+00 +5.2507207099e+02 5.2507207099e+02 0.0000000000e+00 0.0000e+00 -1.0000e+00
       -1 -1    0    0    0  501 -0.0000000000e+00 -0.0000000000e+00 -3.9590999995e+00 3.9590999995e+00 0.0000000000e+00 0.0000e+00 1.0000e+00
       23  1    1    2    0    0 +0.0000000000e+00 +0.0000000000e+00 +5.2111297099e+02 5.2903117099e+02 9.1188000000e+01 0.0000e+00 -1.0000e+00
<mgrwt>
<rscale>  0 0.91188000E+02</rscale>
<asrwt>0</asrwt>
<pdfrwt beam="1">  1        1 0.80780264E-01 0.91188000E+02</pdfrwt>
<pdfrwt beam="2">  1       -1 0.60909272E-03 0.91188000E+02</pdfrwt>
<totfact> 0.13998052E+05</totfact>
</mgrwt>
</event>
<event>
 3      1 +4.2044000e+04 9.11880000e+01 7.54677100e-03 1.30000000e-01
       -2 -1    0    0    0  501 -0.0000000000e+00 +0.0000000000e+00 +6.6269815030e+00 6.6269815030e+00 0.0000000000e+00 0.0000e+00 -1.0000e+00
        2 -1    0    0  501    0 +0.0000000000e+00 -0.0000000000e+00 -3.1368924677e+02 3.1368924677e+02 0.0000000000e+00 0.0000e+00 1.0000e+00
       23  1    1    2    0    0 +0.0000000000e+00 -0.0000000000e+00 -3.0706226526e+02 3.2031622827e+02 9.1188000000e+01 0.0000e+00 -1.0000e+00
<mgrwt>
<rscale>  0 0.91188000E+02</rscale>
<asrwt>0</asrwt>
<pdfrwt beam="2">  1        2 0.48259900E-01 0.91188000E+02</pdfrwt>
<pdfrwt beam="1">  1       -2 0.10195353E-02 0.91188000E+02</pdfrwt>
<totfact> 0.18260615E+05</totfact>
</mgrwt>
</event>
<event>
 3      1 +4.2044000e+04 9.11880000e+01 7.54677100e-03 1.30000000e-01
        2 -1    0    0  501    0 +0.0000000000e+00 +0.0000000000e+00 +8.1598619226e+01 8.1598619226e+01 0.0000000000e+00 0.0000e+00 -1.0000e+00
       -2 -1    0    0    0  501 -0.0000000000e+00 -0.0000000000e+00 -2.5476078587e+01 2.5476078587e+01 0.0000000000e+00 0.0000e+00 1.0000e+00
       23  1    1    2    0    0 +0.0000000000e+00 +0.0000000000e+00 +5.6122540640e+01 1.0707469781e+02 9.1188000000e+01 0.0000e+00 -1.0000e+00
<mgrwt>
<rscale>  0 0.91188000E+02</rscale>
<asrwt>0</asrwt>
<pdfrwt beam="1">  1        2 0.12553634E-01 0.91188000E+02</pdfrwt>
<pdfrwt beam="2">  1       -2 0.39193967E-02 0.91188000E+02</pdfrwt>
<totfact> 0.11546998E+05</totfact>
</mgrwt>
</event>
<event>
 3      1 +4.2044000e+04 9.11880000e+01 7.54677100e-03 1.30000000e-01
       -3 -1    0    0    0  501 -0.0000000000e+00 +0.0000000000e+00 +2.4679338109e+01 2.4679338109e+01 0.0000000000e+00 0.0000e+00 1.0000e+00
        3 -1    0    0  501    0 +0.0000000000e+00 -0.0000000000e+00 -8.4232925000e+01 8.4232925000e+01 0.0000000000e+00 0.0000e+00 -1.0000e+00
       23  1    1    2    0    0 +0.0000000000e+00 -0.0000000000e+00 -5.9553586891e+01 1.0891226311e+02 9.1188000000e+01 0.0000e+00 1.0000e+00
<mgrwt>
<rscale>  0 0.91188000E+02</rscale>
<asrwt>0</asrwt>
<pdfrwt beam="2">  1        3 0.12958912E-01 0.91188000E+02</pdfrwt>
<pdfrwt beam="1">  1       -3 0.37968212E-02 0.91188000E+02</pdfrwt>
<totfact> 0.34011190E+04</totfact>
</mgrwt>
</event>
<event>
 3      1 +4.2044000e+04 9.11880000e+01 7.54677100e-03 1.30000000e-01
        2 -1    0    0  501    0 +0.0000000000e+00 +0.0000000000e+00 +2.2829994830e+02 2.2829994830e+02 0.0000000000e+00 0.0000e+00 -1.0000e+00
       -2 -1    0    0    0  501 -0.0000000000e+00 -0.0000000000e+00 -9.1056211422e+00 9.1056211422e+00 0.0000000000e+00 0.0000e+00 1.0000e+00
       23  1    1    2    0    0 +0.0000000000e+00 +0.0000000000e+00 +2.1919432716e+02 2.3740556944e+02 9.1188000000e+01 0.0000e+00 -1.0000e+00
<mgrwt>
<rscale>  0 0.91188000E+02</rscale>
<asrwt>0</asrwt>
<pdfrwt beam="1">  1        2 0.35123065E-01 0.91188000E+02</pdfrwt>
<pdfrwt beam="2">  1       -2 0.14008650E-02 0.91188000E+02</pdfrwt>
<totfact> 0.16227769E+05</totfact>
</mgrwt>
</event>
<event>
 3      1 +4.2044000e+04 9.11880000e+01 7.54677100e-03 1.30000000e-01
       -2 -1    0    0    0  501 -0.0000000000e+00 +0.0000000000e+00 +3.4016991705e+01 3.4016991705e+01 0.0000000000e+00 0.0000e+00 1.0000e+00
        2 -1    0    0  501    0 +0.0000000000e+00 -0.0000000000e+00 -6.1111013402e+01 6.1111013402e+01 0.0000000000e+00 0.0000e+00 -1.0000e+00
       23  1    1    2    0    0 +0.0000000000e+00 -0.0000000000e+00 -2.7094021697e+01 9.5128005107e+01 9.1188000000e+01 0.0000e+00 1.0000e+00
<mgrwt>
<rscale>  0 0.91188000E+02</rscale>
<asrwt>0</asrwt>
<pdfrwt beam="2">  1        2 0.94016944E-02 0.91188000E+02</pdfrwt>
<pdfrwt beam="1">  1       -2 0.52333833E-02 0.91188000E+02</pdfrwt>
<totfact> 0.10655686E+05</totfact>
</mgrwt>
</event>
<event>
 3      1 +4.2044000e+04 9.11880000e+01 7.54677100e-03 1.30000000e-01
        3 -1    0    0  501    0 +0.0000000000e+00 +0.0000000000e+00 +7.6739781858e+00 7.6739781858e+00 0.0000000000e+00 0.0000e+00 -1.0000e+00
       -3 -1    0    0    0  501 -0.0000000000e+00 -0.0000000000e+00 -2.7089115784e+02 2.7089115784e+02 0.0000000000e+00 0.0000e+00 1.0000e+00
       23  1    1    2    0    0 +0.0000000000e+00 +0.0000000000e+00 -2.6321717965e+02 2.7856513603e+02 9.1188000000e+01 0.0000e+00 -1.0000e+00
<mgrwt>
<rscale>  0 0.91188000E+02</rscale>
<asrwt>0</asrwt>
<pdfrwt beam="1">  1        3 0.11806119E-02 0.91188000E+02</pdfrwt>
<pdfrwt beam="2">  1       -3 0.41675566E-01 0.91188000E+02</pdfrwt>
<totfact> 0.24870478E+04</totfact>
</mgrwt>
</event>
<event>
 3      1 +4.2044000e+04 9.11880000e+01 7.54677100e-03 1.30000000e-01
       -2 -1    0    0    0  501 -0.0000000000e+00 +0.0000000000e+00 +2.0654888240e+02 2.0654888240e+02 0.0000000000e+00 0.0000e+00 1.0000e+00
        2 -1    0    0  501    0 +0.0000000000e+00 -0.0000000000e+00 -1.0064507790e+01 1.0064507790e+01 0.0000000000e+00 0.0000e+00 -1.0000e+00
       23  1    1    2    0    0 +0.0000000000e+00 -0.0000000000e+00 +1.9648437461e+02 2.1661339019e+02 9.1188000000e+01 0.0000e+00 1.0000e+00
<mgrwt>
<rscale>  0 0.91188000E+02</rscale>
<asrwt>0</asrwt>
<pdfrwt beam="2">  1        2 0.15483860E-02 0.91188000E+02</pdfrwt>
<pdfrwt beam="1">  1       -2 0.31776748E-01 0.91188000E+02</pdfrwt>
<totfact> 0.61427968E+04</totfact>
</mgrwt>
</event>
<event>
 3      1 +4.2044000e+04 9.11880000e+01 7.54677100e-03 1.30000000e-01
        1 -1    0    0  501    0 +0.0000000000e+00 +0.0000000000e+00 +2.9376198150e+00 2.9376198150e+00 0.0000000000e+00 0.0000e+00 -1.0000e+00
       -1 -1    0    0    0  501 -0.0000000000e+00 -0.0000000000e+00 -7.0765210168e+02 7.0765210168e+02 0.0000000000e+00 0.0000e+00 1.0000e+00
       23  1    1    2    0    0 +0.0000000000e+00 +0.0000000000e+00 -7.0471448187e+02 7.1058972150e+02 9.1188000000e+01 0.0000e+00 -1.0000e+00
<mgrwt>
<rscale>  0 0.91188000E+02</rscale>
<asrwt>0</asrwt>
<pdfrwt beam="1">  1        1 0.45194159E-03 0.91188000E+02</pdfrwt>
<pdfrwt beam="2">  1       -1 0.10886954E+00 0.91188000E+02</pdfrwt>
<totfact> 0.36493776E+04</totfact>
</mgrwt>
</event>
<event>
 3      1 +4.2044000e+04 9.11880000e+01 7.54677100e-03 1.30000000e-01
       -2 -1    0    0    0  501 -0.0000000000e+00 +0.0000000000e+00 +2.0869189740e+01 2.0869189740e+01 0.0000000000e+00 0.0000e+00 -1.0000e+00
        2 -1    0    0  501    0 +0.0000000000e+00 -0.0000000000e+00 -9.9611573898e+01 9.9611573898e+01 0.0000000000e+00 0.0000e+00 1.0000e+00
       23  1    1    2    0    0 +0.0000000000e+00 -0.0000000000e+00 -7.8742384157e+01 1.2048076364e+02 9.1188000000e+01 0.0000e+00 -1.0000e+00
<mgrwt>
<rscale>  0 0.91188000E+02</rscale>
<asrwt>0</asrwt>
<pdfrwt beam="2">  1        2 0.15324858E-01 0.91188000E+02</pdfrwt>
<pdfrwt beam="1">  1       -2 0.32106445E-02 0.91188000E+02</pdfrwt>
<totfact> 0.12248964E+05</totfact>
</mgrwt>
</event>
<event>
 3      1 +4.2044000e+04 9.11880000e+01 7.54677100e-03 1.30000000e-01
       -1 -1    0    0    0  501 -0.0000000000e+00 +0.0000000000e+00 +1.3341301872e+01 1.3341301872e+01 0.0000000000e+00 0.0000e+00 1.0000e+00
        1 -1    0    0  501    0 +0.0000000000e+00 -0.0000000000e+00 -1.5581783966e+02 1.5581783966e+02 0.0000000000e+00 0.0000e+00 -1.0000e+00
       23  1    1    2    0    0 +0.0000000000e+00 -0.0000000000e+00 -1.4247653779e+02 1.6915914153e+02 9.1188000000e+01 0.0000e+00 1.0000e+00
<mgrwt>
<rscale>  0 0.91188000E+02</rscale>
<asrwt>0</asrwt>
<pdfrwt beam="2">  1        1 0.23971975E-01 0.91188000E+02</pdfrwt>
<pdfrwt beam="1">  1       -1 0.20525080E-02 0.91188000E+02</pdfrwt>
<totfact> 0.11288581E+05</totfact>
</mgrwt>
</event>
<event>
 3      1 +4.2044000e+04 9.11880000e+01 7.54677100e-03 1.30000000e-01
        1 -1    0    0  501    0 +0.0000000000e+00 +0.0000000000e+00 +3.1821711795e+01 3.1821711795e+01 0.0000000000e+00 0.0000e+00 -1.0000e+00
       -1 -1    0    0    0  501 -0.0000000000e+00 -0.0000000000e+00 -6.5326870200e+01 6.5326870200e+01 0.0000000000e+00 0.0000e+00 1.0000e+00
       23  1    1    2    0    0 +0.0000000000e+00 +0.0000000000e+00 -3.3505158405e+01 9.7148581995e+01 9.1188000000e+01 0.0000e+00 -1.0000e+00
<mgrwt>
<rscale>  0 0.91188000E+02</rscale>
<asrwt>0</asrwt>
<pdfrwt beam="1">  1        1 0.48956480E-02 0.91188000E+02</pdfrwt>
<pdfrwt beam="2">  1       -1 0.10050288E-01 0.91188000E+02</pdfrwt>
<totfact> 0.87475361E+04</totfact>
</mgrwt>
</event>
<event>
 3      1 +4.2044000e+04 9.11880000e+01 7.54677100e-03 1.30000000e-01
       -1 -1    0    0    0  501 -0.0000000000e+00 +0.0000000000e+00 +6.5938860638e+00 6.5938860638e+00 0.0000000000e+00 0.0000e+00 1.0000e+00
        1 -1    0    0  501    0 +0.0000000000e+00 -0.0000000000e+00 -3.1526368759e+02 3.1526368759e+02 0.0000000000e+00 0.0000e+00 -1.0000e+00
       23  1    1    2    0    0 +0.0000000000e+00 -0.0000000000e+00 -3.0866980152e+02 3.2185757365e+02 9.1188000000e+01 0.0000e+00 1.0000e+00
<mgrwt>
<rscale>  0 0.91188000E+02</rscale>
<asrwt>0</asrwt>
<pdfrwt beam="2">  1        1 0.48502096E-01 0.91188000E+02</pdfrwt>
<pdfrwt beam="1">  1       -1 0.10144442E-02 0.91188000E+02</pdfrwt>
<totfact> 0.12928803E+05</totfact>
</mgrwt>
</event>
<event>
 3      1 +4.2044000e+04 9.11880000e+01 7.54677100e-03 1.30000000e-01
       -1 -1    0    0    0  501 -0.0000000000e+00 +0.0000000000e+00 +3.8374726129e+00 3.8374726129e+00 0.0000000000e+00 0.0000e+00 1.0000e+00
        1 -1    0    0  501    0 +0.0000000000e+00 -0.0000000000e+00 -5.4171405133e+02 5.4171405133e+02 0.0000000000e+00 0.0000e+00 -1.0000e+00
       23  1    1    2    0    0 +0.0000000000e+00 -0.0000000000e+00 -5.3787657872e+02 5.4555152395e+02 9.1188000000e+01 0.0000e+00 1.0000e+00
<mgrwt>
<rscale>  0 0.91188000E+02</rscale>
<asrwt>0</asrwt>
<pdfrwt beam="2">  1        1 0.83340627E-01 0.91188000E+02</pdfrwt>
<pdfrwt beam="1">  1       -1 0.59038037E-03 0.91188000E+02</pdfrwt>
<totfact> 0.14041718E+05</totfact>
</mgrwt>
</event>
<event>
 3      1 +4.2044000e+04 9.11880000e+01 7.54677100e-03 1.30000000e-01
        1 -1    0    0  501    0 +0.0000000000e+00 +0.0000000000e+00 +3.6269280961e+01 3.6269280961e+01 0.0000000000e+00 0.0000e+00 -1.0000e+00
       -1 -1    0    0    0  501 -0.0000000000e+00 -0.0000000000e+00 -5.7316075227e+01 5.7316075227e+01 0.0000000000e+00 0.0000e+00 1.0000e+00
       23  1    1    2    0    0 +0.0000000000e+00 +0.0000000000e+00 -2.1046794265e+01 9.3585356188e+01 9.1188000000e+01 0.0000e+00 -1.0000e+00
<mgrwt>
<rscale>  0 0.91188000E+02</rscale>
<asrwt>0</asrwt>
<pdfrwt beam="1">  1        1 0.55798894E-02 0.91188000E+02</pdfrwt>
<pdfrwt beam="2">  1       -1 0.88178577E-02 0.91188000E+02</pdfrwt>
<totfact> 0.89284249E+04</totfact>
</mgrwt>
</event>
<event>
 3      1 +4.2044000e+04 9.11880000e+01 7.54677100e-03 1.30000000e-01
       -1 -1    0    0    0  501 -0.0000000000e+00 +0.0000000000e+00 +1.0643361927e+02 1.0643361927e+02 0.0000000000e+00 0.0000e+00 1.0000e+00
        1 -1    0    0  501    0 +0.0000000000e+00 -0.0000000000e+00 -1.9531543232e+01 1.9531543232e+01 0.0000000000e+00 0.0000e+00 -1.0000e+00
       23  1    1    2    0    0 +0.0000000000e+00 -0.0000000000e+00 +8.6902076035e+01 1.2596516250e+02 9.1188000000e+01 0.0000e+00 1.0000e+00
<mgrwt>
<rscale>  0 0.91188000E+02</rscale>
<asrwt>0</asrwt>
<pdfrwt beam="2">  1        1 0.30048529E-02 0.91188000E+02</pdfrwt>
<pdfrwt beam="1">  1       -1 0.16374403E-01 0.91188000E+02</pdfrwt>
<totfact> 0.80392860E+04</totfact>
</mgrwt>
</event>
<event>
 3      1 +4.2044000e+04 9.11880000e+01 7.54677100e-03 1.30000000e-01
       -1 -1    0    0    0  501 -0.0000000000e+00 +0.0000000000e+00 +7.0995613543e+00 7.0995613543e+00 0.0000000000e+00 0.0000e+00 1.0000e+00
        1 -1    0    0  501    0 +0.0000000000e+00 -0.0000000000e+00 -2.9280863032e+02 2.9280863032e+02 0.0000000000e+00 0.0000e+00 -1.0000e+00
       23  1    1    2    0    0 +0.0000000000e+00 -0.0000000000e+00 -2.8570906896e+02 2.9990819167e+02 9.1188000000e+01 0.0000e+00 1.0000e+00
<mgrwt>
<rscale>  0 0.91188000E+02</rscale>
<asrwt>0</asrwt>
<pdfrwt beam="2">  1        1 0.45047484E-01 0.91188000E+02</pdfrwt>
<pdfrwt beam="1">  1       -1 0.10922402E-02 0.91188000E+02</pdfrwt>
<totfact> 0.12748705E+05</totfact>
</mgrwt>
</event>
<event>
 3      1 +4.2044000e+04 9.11880000e+01 7.54677100e-03 1.30000000e-01
       -2 -1    0    0    0  501 -0.0000000000e+00 +0.0000000000e+00 +1.9106529407e+00 1.9106529407e+00 0.0000000000e+00 0.0000e+00 1.0000e+00
        2 -1    0    0  501    0 +0.0000000000e+00 -0.0000000000e+00 -1.0880117429e+03 1.0880117429e+03 0.0000000000e+00 0.0000e+00 -1.0000e+00
       23  1    1    2    0    0 +0.0000000000e+00 -0.0000000000e+00 -1.0861010899e+03 1.0899223958e+03 9.1188000000e+01 0.0000e+00 1.0000e+00
<mgrwt>
<rscale>  0 0.91188000E+02</rscale>
<asrwt>0</asrwt>
<pdfrwt beam="2">  1        2 0.16738657E+00 0.91188000E+02</pdfrwt>
<pdfrwt beam="1">  1       -2 0.29394634E-03 0.91188000E+02</pdfrwt>
<totfact> 0.25018095E+05</totfact>
</mgrwt>
</event>
<event>
 3      1 +4.2044000e+04 9.11880000e+01 7.54677100e-03 1.30000000e-01
        2 -1    0    0  501    0 +0.0000000000e+00 +0.0000000000e+00 +1.1758107439e+03 1.1758107439e+03 0.0000000000e+00 0.0000e+00 1.0000e+00
       -2 -1    0    0    0  501 -0.0000000000e+00 -0.0000000000e+00 -1.7679825149e+00 1.7679825149e+00 0.0000000000e+00 0.0000e+00 -1.0000e+00
       23  1    1    2    0    0 +0.0000000000e+00 +0.0000000000e+00 +1.1740427614e+03 1.1775787264e+03 9.1188000000e+01 0.0000e+00 1.0000e+00
<mgrwt>
<rscale>  0 0.91188000E+02</rscale>
<asrwt>0</asrwt>
<pdfrwt beam="1">  1        2 0.18089334E+00 0.91188000E+02</pdfrwt>
<pdfrwt beam="2">  1       -2 0.27199825E-03 0.91188000E+02</pdfrwt>
<totfact> 0.24911167E+05</totfact>
</mgrwt>
</event>
<event>
 3      1 +4.2044000e+04 9.11880000e+01 7.54677100e-03 1.30000000e-01
       -2 -1    0    0    0  501 -0.0000000000e+00 +0.0000000000e+00 +1.2004292740e+01 1.2004292740e+01 0.0000000000e+00 0.0000e+00 1.0000e+00
        2 -1    0    0  501    0 +0.0000000000e+00 -0.0000000000e+00 -1.7317245431e+02 1.7317245431e+02 0.0000000000e+00 0.0000e+00 -1.0000e+00
       23  1    1    2    0    0 +0.0000000000e+00 -0.0000000000e+00 -1.6116816157e+02 1.8517674705e+02 9.1188000000e+01 0.0000e+00 1.0000e+00
<mgrwt>
<rscale>  0 0.91188000E+02</rscale>
<asrwt>0</asrwt>
<pdfrwt beam="2">  1        2 0.26641914E-01 0.91188000E+02</pdfrwt>
<pdfrwt beam="1">  1       -2 0.18468144E-02 0.91188000E+02</pdfrwt>
<totfact> 0.14687846E+05</totfact>
</mgrwt>
</event>
<event>
 3      1 +4.2044000e+04 9.11880000e+01 7.54677100e-03 1.30000000e-01
        2 -1    0    0  501    0 +0.0000000000e+00 +0.0000000000e+00 +2.4345691833e+02 2.4345691833e+02 0.0000000000e+00 0.0000e+00 -1.0000e+00
       -2 -1    0    0    0  501 -0.0000000000e+00 -0.0000000000e+00 -8.5387297689e+00 8.5387297689e+00 0.0000000000e+00 0.0000e+00 1.0000e+00
       23  1    1    2    0    0 +0.0000000000e+00 +0.0000000000e+00 +2.3491818856e+02 2.5199564810e+02 9.1188000000e+01 0.0000e+00 -1.0000e+00
<mgrwt>
<rscale>  0 0.91188000E+02</rscale>
<asrwt>0</asrwt>
<pdfrwt beam="1">  1        2 0.37454905E-01 0.91188000E+02</pdfrwt>
<pdfrwt beam="2">  1       -2 0.13136509E-02 0.91188000E+02</pdfrwt>
<totfact> 0.16616779E+05</totfact>
</mgrwt>
</event>
<event>
 3      1 +4.2044000e+04 9.11880000e+01 7.54677100e-03 1.30000000e-01
       -3 -1    0    0    0  501 -0.0000000000e+00 +0.0000000000e+00 +5.6203567937e+02 5.6203567937e+02 0.0000000000e+00 0.0000e+00 1.0000e+00
        3 -1    0    0  501    0 +0.0000000000e+00 -0.0000000000e+00 -3.6987204057e+00 3.6987204057e+00 0.0000000000e+00 0.0000e+00 -1.0000e+00
       23  1    1    2    0    0 +0.0000000000e+00 -0.0000000000e+00 +5.5833695896e+02 5.6573439978e+02 9.1188000000e+01 0.0000e+00 1.0000e+00
<mgrwt>
<rscale>  0 0.91188000E+02</rscale>
<asrwt>0</asrwt>
<pdfrwt beam="2">  1        3 0.56903435E-03 0.91188000E+02</pdfrwt>
<pdfrwt beam="1">  1       -3 0.86466960E-01 0.91188000E+02</pdfrwt>
<totfact> 0.16396428E+04</totfact>
</mgrwt>
</event>
<event>
 3      1 +4.2044000e+04 9.11880000e+01 7.54677100e-03 1.30000000e-01
        2 -1    0    0  501    0 +0.0000000000e+00 +0.0000000000e+00 +4.1182231320e+00 4.1182231320e+00 0.0000000000e+00 0.0000e+00 -1.0000e+00
       -2 -1    0    0    0  501 -0.0000000000e+00 -0.0000000000e+00 -5.0478392486e+02 5.0478392486e+02 0.0000000000e+00 0.0000e+00 1.0000e+00
       23  1    1    2    0    0 +0.0000000000e+00 +0.0000000000e+00 -5.0066570173e+02 5.0890214799e+02 9.1188000000e+01 0.0000e+00 -1.0000e+00
<mgrwt>
<rscale>  0 0.91188000E+02</rscale>
<asrwt>0</asrwt>
<pdfrwt beam="1">  1        2 0.63357261E-03 0.91188000E+02</pdfrwt>
<pdfrwt beam="2">  1       -2 0.77659088E-01 0.91188000E+02</pdfrwt>
<totfact> 0.36024538E+04</totfact>
</mgrwt>
</event>
<event>
 3      1 +4.2044000e+04 9.11880000e+01 7.54677100e-03 1.30000000e-01
       -1 -1    0    0    0  501 -0.0000000000e+00 +0.0000000000e+00 +4.4058052464e+00 4.4058052464e+00 0.0000000000e+00 0.0000e+00 1.0000e+00
        1 -1    0    0  501    0 +0.0000000000e+00 -0.0000000000e+00 -4.7183493590e+02 4.7183493590e+02 0.0000000000e+00 0.0000e+00 -1.0000e+00
       23  1    1    2    0    0 +0.0000000000e+00 -0.0000000000e+00 -4.6742913065e+02 4.7624074114e+02 9.1188000000e+01 0.0000e+00 1.0000e+00
<mgrwt>
<rscale>  0 0.91188000E+02</rscale>
<asrwt>0</asrwt>
<pdfrwt beam="2">  1        1 0.72589987E-01 0.91188000E+02</pdfrwt>
<pdfrwt beam="1">  1       -1 0.67781623E-03 0.91188000E+02</pdfrwt>
<totfact> 0.13821159E+05</totfact>
</mgrwt>
</event>
<event>
 3      1 +4.2044000e+04 9.11880000e+01 7.54677100e-03 1.30000000e-01
        4 -1    0    0  501    0 +0.0000000000e+00 +0.0000000000e+00 +3.7514128414e+02 3.7514128414e+02 0.0000000000e+00 0.0000e+00 1.0000e+00
       -4 -1    0    0    0  501 -0.0000000000e+00 -0.0000000000e+00 -5.5414131259e+00 5.5414131259e+00 0.0000000000e+00 0.0000e+00 -1.0000e+00
       23  1    1    2    0    0 +0.0000000000e+00 +0.0000000000e+00 +3.6959987101e+02 3.8068269726e+02 9.1188000000e+01 0.0000e+00 1.0000e+00
<mgrwt>
<rscale>  0 0.91188000E+02</rscale>
<asrwt>0</asrwt>
<pdfrwt beam="1">  1        4 0.57714024E-01 0.91188000E+02</pdfrwt>
<pdfrwt beam="2">  1       -4 0.85252539E-03 0.91188000E+02</pdfrwt>
<totfact> 0.15607733E+04</totfact>
</mgrwt>
</event>
<event>
 3      1 +4.2044000e+04 9.11880000e+01 7.54677100e-03 1.30000000e-01
       -1 -1    0    0    0  501 -0.0000000000e+00 +0.0000000000e+00 +2.1035017422e+00 2.1035017422e+00 0.0000000000e+00 0.0000e+00 1.0000e+00
        1 -1    0    0  501    0 +0.0000000000e+00 -0.0000000000e+00 -9.8826294950e+02 9.8826294950e+02 0.0000000000e+00 0.0000e+00 -1.0000e+00
       23  1    1    2    0    0 +0.0000000000e+00 -0.0000000000e+00 -9.8615944776e+02 9.9036645124e+02 9.1188000000e+01 0.0000e+00 1.0000e+00
<mgrwt>
<rscale>  0 0.91188000E+02</rscale>
<asrwt>0</asrwt>
<pdfrwt beam="2">  1        1 0.15204014E+00 0.91188000E+02</pdfrwt>
<pdfrwt beam="1">  1       -1 0.32361632E-03 0.91188000E+02</pdfrwt>
<totfact> 0.13638944E+05</totfact>
</mgrwt>
</event>
<event>
 3      1 +4.2044000e+04 9.11880000e+01 7.54677100e-03 1.30000000e-01
       -1 -1    0    0    0  501 -0.0000000000e+00 +0.0000000000e+00 +3.4177729420e+01 3.4177729420e+01 0.0000000000e+00 0.0000e+00 1.0000e+00
        1 -1    0    0  501    0 +0.0000000000e+00 -0.0000000000e+00 -6.0823608568e+01 6.0823608568e+01 0.0000000000e+00 0.0000e+00 -1.0000e+00
       23  1    1    2    0    0 +0.0000000000e+00 -0.0000000000e+00 -2.6645879147e+01 9.5001337988e+01 9.1188000000e+01 0.0000e+00 1.0000e+00
<mgrwt>
<rscale>  0 0.91188000E+02</rscale>
<asrwt>0</asrwt>
<pdfrwt beam="2">  1        1 0.93574782E-02 0.91188000E+02</pdfrwt>
<pdfrwt beam="1">  1       -1 0.52581123E-02 0.91188000E+02</pdfrwt>
<totfact> 0.96537653E+04</totfact>
</mgrwt>
</event>
<event>
 3      1 +4.2044000e+04 9.11880000e+01 7.54677100e-03 1.30000000e-01
        1 -1    0    0  501    0 +0.0000000000e+00 +0.0000000000e+00 +2.8575749816e+01 2.8575749816e+01 0.0000000000e+00 0.0000e+00 -1.0000e+00
       -1 -1    0    0    0  501 -0.0000000000e+00 -0.0000000000e+00 -7.2747446676e+01 7.2747446676e+01 0.0000000000e+00 0.0000e+00 1.0000e+00
       23  1    1    2    0    0 +0.0000000000e+00 +0.0000000000e+00 -4.4171696860e+01 1.0132319649e+02 9.1188000000e+01 0.0000e+00 -1.0000e+00
<mgrwt>
<rscale>  0 0.91188000E+02</rscale>
<asrwt>0</asrwt>
<pdfrwt beam="1">  1        1 0.43962693E-02 0.91188000E+02</pdfrwt>
<pdfrwt beam="2">  1       -1 0.11191915E-01 0.91188000E+02</pdfrwt>
<totfact> 0.85972085E+04</totfact>
</mgrwt>
</event>
<event>
 3      1 +4.2044000e+04 9.11880000e+01 7.54677100e-03 1.30000000e-01
        1 -1    0    0  501    0 +0.0000000000e+00 +0.0000000000e+00 +1.5233563012e+02 1.5233563012e+02 0.0000000000e+00 0.0000e+00 -1.0000e+00
       -1 -1    0    0    0  501 -0.0000000000e+00 -0.0000000000e+00 -1.3646268010e+01 1.3646268010e+01 0.0000000000e+00 0.0000e+00 1.0000e+00
       23  1    1    2    0    0 +0.0000000000e+00 +0.0000000000e+00 +1.3868936211e+02 1.6598189813e+02 9.1188000000e+01 0.0000e+00 -1.0000e+00
<mgrwt>
<rscale>  0 0.91188000E+02</rscale>
<asrwt>0</asrwt>
<pdfrwt beam="1">  1        1 0.23436250E-01 0.91188000E+02</pdfrwt>
<pdfrwt beam="2">  1       -1 0.20994260E-02 0.91188000E+02</pdfrwt>
<totfact> 0.11241506E+05</totfact>
</mgrwt>
</event>
<event>
 3      1 +4.2044000e+04 9.11880000e+01 7.54677100e-03 1.30000000e-01
        1 -1    0    0  501    0 +0.0000000000e+00 +0.0000000000e+00 +4.4077401150e+01 4.4077401150e+01 0.0000000000e+00 0.0000e+00 -1.0000e+00
       -1 -1    0    0    0  501 -0.0000000000e+00 -0.0000000000e+00 -4.7162781420e+01 4.7162781420e+01 0.0000000000e+00 0.0000e+00 1.0000e+00
       23  1    1    2    0    0 +0.0000000000e+00 +0.0000000000e+00 -3.0853802704e+00 9.1240182570e+01 9.1188000000e+01 0.0000e+00 -1.0000e+00
<mgrwt>
<rscale>  0 0.91188000E+02</rscale>
<asrwt>0</asrwt>
<pdfrwt beam="1">  1        1 0.67811387E-02 0.91188000E+02</pdfrwt>
<pdfrwt beam="2">  1       -1 0.72558125E-02 0.91188000E+02</pdfrwt>
<totfact> 0.91972730E+04</totfact>
</mgrwt>
</event>
<event>
 3      1 +4.2044000e+04 9.11880000e+01 7.54677100e-03 1.30000000e-01
       -2 -1    0    0    0  501 -0.0000000000e+00 +0.0000000000e+00 +2.2403901389e+00 2.2403901389e+00 0.0000000000e+00 0.0000e+00 1.0000e+00
        2 -1    0    0  501    0 +0.0000000000e+00 -0.0000000000e+00 -9.2787983660e+02 9.2787983660e+02 0.0000000000e+00 0.0000e+00 -1.0000e+00
       23  1    1    2    0    0 +0.0000000000e+00 -0.0000000000e+00 -9.2563944647e+02 9.3012022674e+02 9.1188000000e+01 0.0000e+00 1.0000e+00
<mgrwt>
<rscale>  0 0.91188000E+02</rscale>
<asrwt>0</asrwt>
<pdfrwt beam="2">  1        2 0.14275078E+00 0.91188000E+02</pdfrwt>
<pdfrwt beam="1">  1       -2 0.34467533E-03 0.91188000E+02</pdfrwt>
<totfact> 0.24864292E+05</totfact>
</mgrwt>
</event>
<event>
 3      1 +4.2044000e+04 9.11880000e+01 7.54677100e-03 1.30000000e-01
       -1 -1    0    0    0  501 -0.0000000000e+00 +0.0000000000e+00 +3.3188820273e+00 3.3188820273e+00 0.0000000000e+00 0.0000e+00 1.0000e+00
        1 -1    0    0  501    0 +0.0000000000e+00 -0.0000000000e+00 -6.2635936406e+02 6.2635936406e+02 0.0000000000e+00 0.0000e+00 -1.0000e+00
       23  1    1    2    0    0 +0.0000000000e+00 -0.0000000000e+00 -6.2304048203e+02 6.2967824608e+02 9.1188000000e+01 0.0000e+00 1.0000e+00
<mgrwt>
<rscale>  0 0.91188000E+02</rscale>
<asrwt>0</asrwt>
<pdfrwt beam="2">  1        1 0.96362970E-01 0.91188000E+02</pdfrwt>
<pdfrwt beam="1">  1       -1 0.51059728E-03 0.91188000E+02</pdfrwt>
<totfact> 0.14185385E+05</totfact>
</mgrwt>
</event>
<event>
 3      1 +4.2044000e+04 9.11880000e+01 7.54677100e-03 1.30000000e-01
       -2 -1    0    0    0  501 -0.0000000000e+00 +0.0000000000e+00 +1.8437379633e+02 1.8437379633e+02 0.0000000000e+00 0.0000e+00 1.0000e+00
        2 -1    0    0  501    0 +0.0000000000e+00 -0.0000000000e+00 -1.1274990684e+01 1.1274990684e+01 0.0000000000e+00 0.0000e+00 -1.0000e+00
       23  1    1    2    0    0 +0.0000000000e+00 -0.0000000000e+00 +1.7309880564e+02 1.9564878701e+02 9.1188000000e+01 0.0000e+00 1.0000e+00
<mgrwt>
<rscale>  0 0.91188000E+02</rscale>
<asrwt>0</asrwt>
<pdfrwt beam="2">  1        2 0.17346141E-02 0.91188000E+02</pdfrwt>
<pdfrwt beam="1">  1       -2 0.28365197E-01 0.91188000E+02</pdfrwt>
<totfact> 0.64477237E+04</totfact>
</mgrwt>
</event>
<event>
 3      1 +4.2044000e+04 9.11880000e+01 7.54677100e-03 1.30000000e-01
       -2 -1    0    0    0  501 -0.0000000000e+00 +0.0000000000e+00 +1.1623930505e+01 1.1623930505e+01 0.0000000000e+00 0.0000e+00 1.0000e+00
        2 -1    0    0  501    0 +0.0000000000e+00 -0.0000000000e+00 -1.7883906266e+02 1.7883906266e+02 0.0000000000e+00 0.0000e+00 -1.0000e+00
       23  1    1    2    0    0 +0.0000000000e+00 -0.0000000000e+00 -1.6721513216e+02 1.9046299317e+02 9.1188000000e+01 0.0000e+00 1.0000e+00
<mgrwt>
<rscale>  0 0.91188000E+02</rscale>
<asrwt>0</asrwt>
<pdfrwt beam="2">  1        2 0.27513700E-01 0.91188000E+02</pdfrwt>
<pdfrwt beam="1">  1       -2 0.17882971E-02 0.91188000E+02</pdfrwt>
<totfact> 0.14855577E+05</totfact>
</mgrwt>
</event>
<event>
 3      1 +4.2044000e+04 9.11880000e+01 7.54677100e-03 1.30000000e-01
       -2 -1    0    0    0  501 -0.0000000000e+00 +0.0000000000e+00 +3.0713707648e+01 3.0713707648e+01 0.0000000000e+00 0.0000e+00 1.0000e+00
        2 -1    0    0  501    0 +0.0000000000e+00 -0.0000000000e+00 -6.7683552238e+01 6.7683552238e+01 0.0000000000e+00 0.0000e+00 -1.0000e+00
       23  1    1    2    0    0 +0.0000000000e+00 -0.0000000000e+00 -3.6969844590e+01 9.8397259886e+01 9.1188000000e+01 0.0000e+00 1.0000e+00
<mgrwt>
<rscale>  0 0.91188000E+02</rscale>
<asrwt>0</asrwt>
<pdfrwt beam="2">  1        2 0.10412854E-01 0.91188000E+02</pdfrwt>
<pdfrwt beam="1">  1       -2 0.47251858E-02 0.91188000E+02</pdfrwt>
<totfact> 0.10955928E+05</totfact>
</mgrwt>
</event>
<event>
 3      1 +4.2044000e+04 9.11880000e+01 7.54677100e-03 1.30000000e-01
       -2 -1    0    0    0  501 -0.0000000000e+00 +0.0000000000e+00 +3.3357650302e+02 3.3357650302e+02 0.0000000000e+00 0.0000e+00 -1.0000e+00
        2 -1    0    0  501    0 +0.0000000000e+00 -0.0000000000e+00 -6.2318922861e+00 6.2318922861e+00 0.0000000000e+00 0.0000e+00 1.0000e+00
       23  1    1    2    0    0 +0.0000000000e+00 -0.0000000000e+00 +3.2734461074e+02 3.3980839531e+02 9.1188000000e+01 0.0000e+00 -1.0000e+00
<mgrwt>
<rscale>  0 0.91188000E+02</rscale>
<asrwt>0</asrwt>
<pdfrwt beam="2">  1        2 0.95875292E-03 0.91188000E+02</pdfrwt>
<pdfrwt beam="1">  1       -2 0.51319448E-01 0.91188000E+02</pdfrwt>
<totfact> 0.47931136E+04</totfact>
</mgrwt>
</event>
<event>
 3      1 +4.2044000e+04 9.11880000e+01 7.54677100e-03 1.30000000e-01
        1 -1    0    0  501    0 +0.0000000000e+00 +0.0000000000e+00 +1.0135671652e+03 1.0135671652e+03 0.0000000000e+00 0.0000e+00 -1.0000e+00
       -1 -1    0    0    0  501 -0.0000000000e+00 -0.0000000000e+00 -2.0509867598e+00 2.0509867598e+00 0.0000000000e+00 0.0000e+00 1.0000e+00
       23  1    1    2    0    0 +0.0000000000e+00 +0.0000000000e+00 +1.0115161784e+03 1.0156181520e+03 9.1188000000e+01 0.0000e+00 -1.0000e+00
<mgrwt>
<rscale>  0 0.91188000E+02</rscale>
<asrwt>0</asrwt>
<pdfrwt beam="1">  1        1 0.15593301E+00 0.91188000E+02</pdfrwt>
<pdfrwt beam="2">  1       -1 0.31553724E-03 0.91188000E+02</pdfrwt>
<totfact> 0.13547309E+05</totfact>
</mgrwt>
</event>
<event>
 3      1 +4.2044000e+04 9.11880000e+01 7.54677100e-03 1.30000000e-01
        4 -1    0    0  501    0 +0.0000000000e+00 +0.0000000000e+00 +2.1848758361e+01 2.1848758361e+01 0.0000000000e+00 0.0000e+00 -1.0000e+00
       -4 -1    0    0    0  501 -0.0000000000e+00 -0.0000000000e+00 -9.5145582266e+01 9.5145582266e+01 0.0000000000e+00 0.0000e+00 1.0000e+00
       23  1    1    2    0    0 +0.0000000000e+00 +0.0000000000e+00 -7.3296823905e+01 1.1699434063e+02 9.1188000000e+01 0.0000e+00 -1.0000e+00
<mgrwt>
<rscale>  0 0.91188000E+02</rscale>
<asrwt>0</asrwt>
<pdfrwt beam="1">  1        4 0.33613474E-02 0.91188000E+02</pdfrwt>
<pdfrwt beam="2">  1       -4 0.14637782E-01 0.91188000E+02</pdfrwt>
<totfact> 0.25435843E+04</totfact>
</mgrwt>
</event>
<event>
 3      1 +4.2044000e+04 9.11880000e+01 7.54677100e-03 1.30000000e-01
        2 -1    0    0  501    0 +0.0000000000e+00 +0.0000000000e+00 +4.3335934756e+02 4.3335934756e+02 0.0000000000e+00 0.0000e+00 -1.0000e+00
       -2 -1    0    0    0  501 -0.0000000000e+00 -0.0000000000e+00 -4.7969724149e+00 4.7969724149e+00 0.0000000000e+00 0.0000e+00 1.0000e+00
       23  1    1    2    0    0 +0.0000000000e+00 +0.0000000000e+00 +4.2856237515e+02 4.3815631998e+02 9.1188000000e+01 0.0000e+00 -1.0000e+00
<mgrwt>
<rscale>  0 0.91188000E+02</rscale>
<asrwt>0</asrwt>
<pdfrwt beam="1">  1        2 0.66670638E-01 0.91188000E+02</pdfrwt>
<pdfrwt beam="2">  1       -2 0.73799609E-03 0.91188000E+02</pdfrwt>
<totfact> 0.20528298E+05</totfact>
</mgrwt>
</event>
<event>
 3      1 +4.2044000e+04 9.11880000e+01 7.54677100e-03 1.30000000e-01
        1 -1    0    0  501    0 +0.0000000000e+00 +0.0000000000e+00 +4.8513636339e+01 4.8513636339e+01 0.0000000000e+00 0.0000e+00 -1.0000e+00
       -1 -1    0    0    0  501 -0.0000000000e+00 -0.0000000000e+00 -4.2850072534e+01 4.2850072534e+01 0.0000000000e+00 0.0000e+00 1.0000e+00
       23  1    1    2    0    0 +0.0000000000e+00 +0.0000000000e+00 +5.6635638048e+00 9.1363708873e+01 9.1188000000e+01 0.0000e+00 -1.0000e+00
<mgrwt>
<rscale>  0 0.91188000E+02</rscale>
<asrwt>0</asrwt>
<pdfrwt beam="1">  1        1 0.74636364E-02 0.91188000E+02</pdfrwt>
<pdfrwt beam="2">  1       -1 0.65923188E-02 0.91188000E+02</pdfrwt>
<totfact> 0.93308160E+04</totfact>
</mgrwt>
</event>
<event>
 3      1 +4.2044000e+04 9.11880000e+01 7.54677100e-03 1.30000000e-01
        2 -1    0    0  501    0 +0.0000000000e+00 +0.0000000000e+00 +1.1692049228e+03 1.1692049228e+03 0.0000000000e+00 0.0000e+00 -1.0000e+00
       -2 -1    0    0    0  501 -0.0000000000e+00 -0.0000000000e+00 -1.7779713338e+00 1.7779713338e+00 0.0000000000e+00 0.0000e+00 1.0000e+00
       23  1    1    2    0    0 +0.0000000000e+00 +0.0000000000e+00 +1.1674269514e+03 1.1709828941e+03 9.1188000000e+01 0.0000e+00 -1.0000e+00
<mgrwt>
<rscale>  0 0.91188000E+02</rscale>
<asrwt>0</asrwt>
<pdfrwt beam="1">  1        2 0.17987707E+00 0.91188000E+02</pdfrwt>
<pdfrwt beam="2">  1       -2 0.27353499E-03 0.91188000E+02</pdfrwt>
<totfact> 0.24923474E+05</totfact>
</mgrwt>
</event>
<event>
 3      1 +4.2044000e+04 9.11880000e+01 7.54677100e-03 1.30000000e-01
       -1 -1    0    0    0  501 -0.0000000000e+00 +0.0000000000e+00 +3.4017226037e+01 3.4017226037e+01 0.0000000000e+00 0.0000e+00 1.0000e+00
        1 -1    0    0  501    0 +0.0000000000e+00 -0.0000000000e+00 -6.1110592432e+01 6.1110592432e+01 0.0000000000e+00 0.0000e+00 -1.0000e+00
       23  1    1    2    0    0 +0.0000000000e+00 -0.0000000000e+00 -2.7093366396e+01 9.5127818469e+01 9.1188000000e+01 0.0000e+00 1.0000e+00
<mgrwt>
<rscale>  0 0.91188000E+02</rscale>
<asrwt>0</asrwt>
<pdfrwt beam="2">  1        1 0.94016296E-02 0.91188000E+02</pdfrwt>
<pdfrwt beam="1">  1       -1 0.52334194E-02 0.91188000E+02</pdfrwt>
<totfact> 0.96606568E+04</totfact>
</mgrwt>
</event>
<event>
 3      1 +4.2044000e+04 9.11880000e+01 7.54677100e-03 1.30000000e-01
       -2 -1    0    0    0  501 -0.0000000000e+00 +0.0000000000e+00 +2.3820829045e+00 2.3820829045e+00 0.0000000000e+00 0.0000e+00 1.0000e+00
        2 -1    0    0  501    0 +0.0000000000e+00 -0.0000000000e+00 -8.7268702197e+02 8.7268702197e+02 0.0000000000e+00 0.0000e+00 -1.0000e+00
       23  1    1    2    0    0 +0.0000000000e+00 -0.0000000000e+00 -8.7030493906e+02 8.7506910487e+02 9.1188000000e+01 0.0000e+00 1.0000e+00
<mgrwt>
<rscale>  0 0.91188000E+02</rscale>
<asrwt>0</asrwt>
<pdfrwt beam="2">  1        2 0.13425959E+00 0.91188000E+02</pdfrwt>
<pdfrwt beam="1">  1       -2 0.36647417E-03 0.91188000E+02</pdfrwt>
<totfact> 0.24693609E+05</totfact>
</mgrwt>
</event>
<event>
 3      1 +4.2044000e+04 9.11880000e+01 7.54677100e-03 1.30000000e-01
       -4 -1    0    0    0  501 -0.0000000000e+00 +0.0000000000e+00 +9.3070708725e-01 9.3070708725e-01 0.0000000000e+00 0.0000e+00 1.0000e+00
        4 -1    0    0  501    0 +0.0000000000e+00 -0.0000000000e+00 -2.2335844053e+03 2.2335844053e+03 0.0000000000e+00 0.0000e+00 -1.0000e+00
       23  1    1    2    0    0 +0.0000000000e+00 -0.0000000000e+00 -2.2326536982e+03 2.2345151124e+03 9.1188000000e+01 0.0000e+00 1.0000e+00
<mgrwt>
<rscale>  0 0.91188000E+02</rscale>
<asrwt>0</asrwt>
<pdfrwt beam="2">  1        4 0.34362604E+00 0.91188000E+02</pdfrwt>
<pdfrwt beam="1">  1       -4 0.14318668E-03 0.91188000E+02</pdfrwt>
<totfact> 0.16711857E+03</totfact>
</mgrwt>
</event>
<event>
 3      1 +4.2044000e+04 9.11880000e+01 7.54677100e-03 1.30000000e-01
        2 -1    0    0  501    0 +0.0000000000e+00 +0.0000000000e+00 +2.5676039332e+01 2.5676039332e+01 0.0000000000e+00 0.0000e+00 -1.0000e+00
       -2 -1    0    0    0  501 -0.0000000000e+00 -0.0000000000e+00 -8.0963142684e+01 8.0963142684e+01 0.0000000000e+00 0.0000e+00 1.0000e+00
       23  1    1    2    0    0 +0.0000000000e+00 +0.0000000000e+00 -5.5287103352e+01 1.0663918202e+02 9.1188000000e+01 0.0000e+00 -1.0000e+00
<mgrwt>
<rscale>  0 0.91188000E+02</rscale>
<asrwt>0</asrwt>
<pdfrwt beam="1">  1        2 0.39501599E-02 0.91188000E+02</pdfrwt>
<pdfrwt beam="2">  1       -2 0.12455868E-01 0.91188000E+02</pdfrwt>
<totfact> 0.84771950E+04</totfact>
</mgrwt>
</event>
<event>
 3      1 +4.2044000e+04 9.11880000e+01 7.54677100e-03 1.30000000e-01
        1 -1    0    0  501    0 +0.0000000000e+00 +0.0000000000e+00 +9.0955266784e+02 9.0955266784e+02 0.0000000000e+00 0.0000e+00 -1.0000e+00
       -1 -1    0    0    0  501 -0.0000000000e+00 -0.0000000000e+00 -2.2855332182e+00 2.2855332182e+00 0.0000000000e+00 0.0000e+00 1.0000e+00
       23  1    1    2    0    0 +0.0000000000e+00 +0.0000000000e+00 +9.0726713462e+02 9.1183820106e+02 9.1188000000e+01 0.0000e+00 -1.0000e+00
<mgrwt>
<rscale>  0 0.91188000E+02</rscale>
<asrwt>0</asrwt>
<pdfrwt beam="1">  1        1 0.13993089E+00 0.91188000E+02</pdfrwt>
<pdfrwt beam="2">  1       -1 0.35162122E-03 0.91188000E+02</pdfrwt>
<totfact> 0.13887090E+05</totfact>
</mgrwt>
</event>
<event>
 3      1 +4.2044000e+04 9.11880000e+01 7.54677100e-03 1.30000000e-01
        2 -1    0    0  501    0 +0.0000000000e+00 +0.0000000000e+00 +3.4592569961e+00 3.4592569961e+00 0.0000000000e+00 0.0000e+00 -1.0000e+00
       -2 -1    0    0    0  501 -0.0000000000e+00 -0.0000000000e+00 -6.0094200527e+02 6.0094200527e+02 0.0000000000e+00 0.0000e+00 1.0000e+00
       23  1    1    2    0    0 +0.0000000000e+00 +0.0000000000e+00 -5.9748274828e+02 6.0440126227e+02 9.1188000000e+01 0.0000e+00 -1.0000e+00
<mgrwt>
<rscale>  0 0.91188000E+02</rscale>
<asrwt>0</asrwt>
<pdfrwt beam="1">  1        2 0.53219403E-03 0.91188000E+02</pdfrwt>
<pdfrwt beam="2">  1       -2 0.92452504E-01 0.91188000E+02</pdfrwt>
<totfact> 0.31210391E+04</totfact>
</mgrwt>
</event>
<event>
 3      1 +4.2044000e+04 9.11880000e+01 7.54677100e-03 1.30000000e-01
        1 -1    0    0  501    0 +0.0000000000e+00 +0.0000000000e+00 +8.8547025087e+00 8.8547025087e+00 0.0000000000e+00 0.0000e+00 -1.0000e+00
       -1 -1    0    0    0  501 -0.0000000000e+00 -0.0000000000e+00 -2.3476935944e+02 2.3476935944e+02 0.0000000000e+00 0.0000e+00 1.0000e+00
       23  1    1    2    0    0 +0.0000000000e+00 +0.0000000000e+00 -2.2591465693e+02 2.4362406195e+02 9.1188000000e+01 0.0000e+00 -1.0000e+00
<mgrwt>
<rscale>  0 0.91188000E+02</rscale>
<asrwt>0</asrwt>
<pdfrwt beam="1">  1        1 0.13622621E-02 0.91188000E+02</pdfrwt>
<pdfrwt beam="2">  1       -1 0.36118358E-01 0.91188000E+02</pdfrwt>
<totfact> 0.66104065E+04</totfact>
</mgrwt>
</event>
<event>
 3      1 +4.2044000e+04 9.11880000e+01 7.54677100e-03 1.30000000e-01
        2 -1    0    0  501    0 +0.0000000000e+00 +0.0000000000e+00 +4.8133036269e+02 4.8133036269e+02 0.0000000000e+00 0.0000e+00 -1.0000e+00
       -2 -1    0    0    0  501 -0.0000000000e+00 -0.0000000000e+00 -4.3188898876e+00 4.3188898876e+00 0.0000000000e+00 0.0000e+00 1.0000e+00
       23  1    1    2    0    0 +0.0000000000e+00 +0.0000000000e+00 +4.7701147280e+02 4.8564925257e+02 9.1188000000e+01 0.0000e+00 -1.0000e+00
<mgrwt>
<rscale>  0 0.91188000E+02</rscale>
<asrwt>0</asrwt>
<pdfrwt beam="1">  1        2 0.74050783E-01 0.91188000E+02</pdfrwt>
<pdfrwt beam="2">  1       -2 0.66444498E-03 0.91188000E+02</pdfrwt>
<totfact> 0.21275094E+05</totfact>
</mgrwt>
</event>
<event>
 3      1 +4.2044000e+04 9.11880000e+01 7.54677100e-03 1.30000000e-01
       -1 -1    0    0    0  501 -0.0000000000e+00 +0.0000000000e+00 +1.2803122955e+00 1.2803122955e+00 0.0000000000e+00 0.0000e+00 1.0000e+00
        1 -1    0    0  501    0 +0.0000000000e+00 -0.0000000000e+00 -1.6236763821e+03 1.6236763821e+03 0.0000000000e+00 0.0000e+00 -1.0000e+00
       23  1    1    2    0    0 +0.0000000000e+00 -0.0000000000e+00 -1.6223960698e+03 1.6249566944e+03 9.1188000000e+01 0.0000e+00 1.0000e+00
<mgrwt>
<rscale>  0 0.91188000E+02</rscale>
<asrwt>0</asrwt>
<pdfrwt beam="2">  1        1 0.24979586E+00 0.91188000E+02</pdfrwt>
<pdfrwt beam="1">  1       -1 0.19697152E-03 0.91188000E+02</pdfrwt>
<totfact> 0.10290564E+05</totfact>
</mgrwt>
</event>
<event>
 3      1 +4.2044000e+04 9.11880000e+01 7.54677100e-03 1.30000000e-01
       -2 -1    0    0    0  501 -0.0000000000e+00 +0.0000000000e+00 +1.9075442273e+01 1.9075442273e+01 0.0000000000e+00 0.0000e+00 -1.0000e+00
        2 -1    0    0  501    0 +0.0000000000e+00 -0.0000000000e+00 -1.0897848691e+02 1.0897848691e+02 0.0000000000e+00 0.0000e+00 1.0000e+00
       23  1    1    2    0    0 +0.0000000000e+00 -0.0000000000e+00 -8.9903044633e+01 1.2805392918e+02 9.1188000000e+01 0.0000e+00 -1.0000e+00
<mgrwt>
<rscale>  0 0.91188000E+02</rscale>
<asrwt>0</asrwt>
<pdfrwt beam="2">  1        2 0.16765921E-01 0.91188000E+02</pdfrwt>
<pdfrwt beam="1">  1       -2 0.29346835E-02 0.91188000E+02</pdfrwt>
<totfact> 0.12592813E+05</totfact>
</mgrwt>
</event>
<event>
 3      1 +4.2044000e+04 9.11880000e+01 7.54677100e-03 1.30000000e-01
        2 -1    0    0  501    0 +0.0000000000e+00 +0.0000000000e+00 +4.1751338756e+02 4.1751338756e+02 0.0000000000e+00 0.0000e+00 -1.0000e+00
       -2 -1    0    0    0  501 -0.0000000000e+00 -0.0000000000e+00 -4.9790327639e+00 4.9790327639e+00 0.0000000000e+00 0.0000e+00 1.0000e+00
       23  1    1    2    0    0 +0.0000000000e+00 +0.0000000000e+00 +4.1253435479e+02 4.2249242032e+02 9.1188000000e+01 0.0000e+00 -1.0000e+00
<mgrwt>
<rscale>  0 0.91188000E+02</rscale>
<asrwt>0</asrwt>
<pdfrwt beam="1">  1        2 0.64232801E-01 0.91188000E+02</pdfrwt>
<pdfrwt beam="2">  1       -2 0.76600537E-03 0.91188000E+02</pdfrwt>
<totfact> 0.20262059E+05</totfact>
</mgrwt>
</event>
<event>
 3      1 +4.2044000e+04 9.11880000e+01 7.54677100e-03 1.30000000e-01
       -1 -1    0    0    0  501 -0.0000000000e+00 +0.0000000000e+00 +7.5899540581e+00 7.5899540581e+00 0.0000000000e+00 0.0000e+00 1.0000e+00
        1 -1    0    0  501    0 +0.0000000000e+00 -0.0000000000e+00 -2.7389004203e+02 2.7389004203e+02 0.0000000000e+00 0.0000e+00 -1.0000e+00
       23  1    1    2    0    0 +0.0000000000e+00 -0.0000000000e+00 -2.6630008797e+02 2.8147999609e+02 9.1188000000e+01 0.0000e+00 1.0000e+00
<mgrwt>
<rscale>  0 0.91188000E+02</rscale>
<asrwt>0</asrwt>
<pdfrwt beam="2">  1        1 0.42136930E-01 0.91188000E+02</pdfrwt>
<pdfrwt beam="1">  1       -1 0.11676852E-02 0.91188000E+02</pdfrwt>
<totfact> 0.12585145E+05</totfact>
</mgrwt>
</event>
<event>
 3      1 +4.2044000e+04 9.11880000e+01 7.54677100e-03 1.30000000e-01
       -2 -1    0    0    0  501 -0.0000000000e+00 +0.0000000000e+00 +2.0294260430e+00 2.0294260430e+00 0.0000000000e+00 0.0000e+00 1.0000e+00
        2 -1    0    0  501    0 +0.0000000000e+00 -0.0000000000e+00 -1.0243353500e+03 1.0243353500e+03 0.0000000000e+00 0.0000e+00 -1.0000e+00
       23  1    1    2    0    0 +0.0000000000e+00 -0.0000000000e+00 -1.0223059239e+03 1.0263647760e+03 9.1188000000e+01 0.0000e+00 1.0000e+00
<mgrwt>
<rscale>  0 0.91188000E+02</rscale>
<asrwt>0</asrwt>
<pdfrwt beam="2">  1        2 0.15759031E+00 0.91188000E+02</pdfrwt>
<pdfrwt beam="1">  1       -2 0.31221889E-03 0.91188000E+02</pdfrwt>
<totfact> 0.25014245E+05</totfact>
</mgrwt>
</event>
<event>
 3      1 +4.2044000e+04 9.11880000e+01 7.54677100e-03 1.30000000e-01
       -4 -1    0    0    0  501 -0.0000000000e+00 +0.0000000000e+00 +1.6013275778e+02 1.6013275778e+02 0.0000000000e+00 0.0000e+00 1.0000e+00
        4 -1    0    0  501    0 +0.0000000000e+00 -0.0000000000e+00 -1.2981808749e+01 1.2981808749e+01 0.0000000000e+00 0.0000e+00 -1.0000e+00
       23  1    1    2    0    0 +0.0000000000e+00 -0.0000000000e+00 +1.4715094903e+02 1.7311456653e+02 9.1188000000e+01 0.0000e+00 1.0000e+00
<mgrwt>
<rscale>  0 0.91188000E+02</rscale>
<asrwt>0</asrwt>
<pdfrwt beam="2">  1        4 0.19972015E-02 0.91188000E+02</pdfrwt>
<pdfrwt beam="1">  1       -4 0.24635808E-01 0.91188000E+02</pdfrwt>
<totfact> 0.22556289E+04</totfact>
</mgrwt>
</event>
<event>
 3      1 +4.2044000e+04 9.11880000e+01 7.54677100e-03 1.30000000e-01
        1 -1    0    0  501    0 +0.0000000000e+00 +0.0000000000e+00 +4.1558529676e+02 4.1558529676e+02 0.0000000000e+00 0.0000e+00 -1.0000e+00
       -1 -1    0    0    0  501 -0.0000000000e+00 -0.0000000000e+00 -5.0021327805e+00 5.0021327805e+00 0.0000000000e+00 0.0000e+00 1.0000e+00
       23  1    1    2    0    0 +0.0000000000e+00 +0.0000000000e+00 +4.1058316398e+02 4.2058742954e+02 9.1188000000e+01 0.0000e+00 -1.0000e+00
<mgrwt>
<rscale>  0 0.91188000E+02</rscale>
<asrwt>0</asrwt>
<pdfrwt beam="1">  1        1 0.63936173E-01 0.91188000E+02</pdfrwt>
<pdfrwt beam="2">  1       -1 0.76955921E-03 0.91188000E+02</pdfrwt>
<totfact> 0.13567882E+05</totfact>
</mgrwt>
</event>
<event>
 3      1 +4.2044000e+04 9.11880000e+01 7.54677100e-03 1.30000000e-01
        1 -1    0    0  501    0 +0.0000000000e+00 +0.0000000000e+00 +9.3686403355e+00 9.3686403355e+00 0.0000000000e+00 0.0000e+00 -1.0000e+00
       -1 -1    0    0    0  501 -0.0000000000e+00 -0.0000000000e+00 -2.2189055845e+02 2.2189055845e+02 0.0000000000e+00 0.0000e+00 1.0000e+00
       23  1    1    2    0    0 +0.0000000000e+00 +0.0000000000e+00 -2.1252191812e+02 2.3125919879e+02 9.1188000000e+01 0.0000e+00 -1.0000e+00
<mgrwt>
<rscale>  0 0.91188000E+02</rscale>
<asrwt>0</asrwt>
<pdfrwt beam="1">  1        1 0.14413292E-02 0.91188000E+02</pdfrwt>
<pdfrwt beam="2">  1       -1 0.34137010E-01 0.91188000E+02</pdfrwt>
<totfact> 0.67292090E+04</totfact>
</mgrwt>
</event>
<event>
 3      1 +4.2044000e+04 9.11880000e+01 7.54677100e-03 1.30000000e-01
        2 -1    0    0  501    0 +0.0000000000e+00 +0.0000000000e+00 +1.7829500938e+02 1.7829500938e+02 0.0000000000e+00 0.0000e+00 -1.0000e+00
       -2 -1    0    0    0  501 -0.0000000000e+00 -0.0000000000e+00 -1.1659400020e+01 1.1659400020e+01 0.0000000000e+00 0.0000e+00 1.0000e+00
       23  1    1    2    0    0 +0.0000000000e+00 +0.0000000000e+00 +1.6663560936e+02 1.8995440940e+02 9.1188000000e+01 0.0000e+00 -1.0000e+00
<mgrwt>
<rscale>  0 0.91188000E+02</rscale>
<asrwt>0</asrwt>
<pdfrwt beam="1">  1        2 0.27430000E-01 0.91188000E+02</pdfrwt>
<pdfrwt beam="2">  1       -2 0.17937540E-02 0.91188000E+02</pdfrwt>
<totfact> 0.14839538E+05</totfact>
</mgrwt>
</event>
<event>
 3      1 +4.2044000e+04 9.11880000e+01 7.54677100e-03 1.30000000e-01
       -1 -1    0    0    0  501 -0.0000000000e+00 +0.0000000000e+00 +2.1486105795e+00 2.1486105795e+00 0.0000000000e+00 0.0000e+00 1.0000e+00
        1 -1    0    0  501    0 +0.0000000000e+00 -0.0000000000e+00 -9.6751494003e+02 9.6751494003e+02 0.0000000000e+00 0.0000e+00 -1.0000e+00
       23  1    1    2    0    0 +0.0000000000e+00 -0.0000000000e+00 -9.6536632945e+02 9.6966355061e+02 9.1188000000e+01 0.0000e+00 1.0000e+00
<mgrwt>
<rscale>  0 0.91188000E+02</rscale>
<asrwt>0</asrwt>
<pdfrwt beam="2">  1        1 0.14884853E+00 0.91188000E+02</pdfrwt>
<pdfrwt beam="1">  1       -1 0.33055531E-03 0.91188000E+02</pdfrwt>
<totfact> 0.13709921E+05</totfact>
</mgrwt>
</event>
<event>
 3      1 +4.2044000e+04 9.11880000e+01 7.54677100e-03 1.30000000e-01
        1 -1    0    0  501    0 +0.0000000000e+00 +0.0000000000e+00 +1.4970525682e+00 1.4970525682e+00 0.0000000000e+00 0.0000e+00 -1.0000e+00
       -1 -1    0    0    0  501 -0.0000000000e+00 -0.0000000000e+00 -1.3886037673e+03 1.3886037673e+03 0.0000000000e+00 0.0000e+00 1.0000e+00
       23  1    1    2    0    0 +0.0000000000e+00 +0.0000000000e+00 -1.3871067147e+03 1.3901008199e+03 9.1188000000e+01 0.0000e+00 -1.0000e+00
<mgrwt>
<rscale>  0 0.91188000E+02</rscale>
<asrwt>0</asrwt>
<pdfrwt beam="1">  1        1 0.23031569E-03 0.91188000E+02</pdfrwt>
<pdfrwt beam="2">  1       -1 0.21363143E+00 0.91188000E+02</pdfrwt>
<totfact> 0.15889195E+04</totfact>
</mgrwt>
</event>
<event>
 3      1 +4.2044000e+04 9.11880000e+01 7.54677100e-03 1.30000000e-01
        1 -1    0    0  501    0 +0.0000000000e+00 +0.0000000000e+00 +1.9339098355e+01 1.9339098355e+01 0.0000000000e+00 0.0000e+00 -1.0000e+00
       -1 -1    0    0    0  501 -0.0000000000e+00 -0.0000000000e+00 -1.0749274851e+02 1.0749274851e+02 0.0000000000e+00 0.0000e+00 1.0000e+00
       23  1    1    2    0    0 +0.0000000000e+00 +0.0000000000e+00 -8.8153650159e+01 1.2683184687e+02 9.1188000000e+01 0.0000e+00 -1.0000e+00
<mgrwt>
<rscale>  0 0.91188000E+02</rscale>
<asrwt>0</asrwt>
<pdfrwt beam="1">  1        1 0.29752460E-02 0.91188000E+02</pdfrwt>
<pdfrwt beam="2">  1       -1 0.16537346E-01 0.91188000E+02</pdfrwt>
<totfact> 0.80239988E+04</totfact>
</mgrwt>
</event>
<event>
 3      1 +4.2044000e+04 9.11880000e+01 7.54677100e-03 1.30000000e-01
       -2 -1    0    0    0  501 -0.0000000000e+00 +0.0000000000e+00 +1.2932330762e+02 1.2932330762e+02 0.0000000000e+00 0.0000e+00 1.0000e+00
        2 -1    0    0  501    0 +0.0000000000e+00 -0.0000000000e+00 -1.6074541197e+01 1.6074541197e+01 0.0000000000e+00 0.0000e+00 -1.0000e+00
       23  1    1    2    0    0 +0.0000000000e+00 -0.0000000000e+00 +1.1324876642e+02 1.4539784881e+02 9.1188000000e+01 0.0000e+00 1.0000e+00
<mgrwt>
<rscale>  0 0.91188000E+02</rscale>
<asrwt>0</asrwt>
<pdfrwt beam="2">  1        2 0.24730064E-02 0.91188000E+02</pdfrwt>
<pdfrwt beam="1">  1       -2 0.19895893E-01 0.91188000E+02</pdfrwt>
<totfact> 0.73554443E+04</totfact>
</mgrwt>
</event>
<event>
 3      1 +4.2044000e+04 9.11880000e+01 7.54677100e-03 1.30000000e-01
        1 -1    0    0  501    0 +0.0000000000e+00 +0.0000000000e+00 +9.3692112744e+00 9.3692112744e+00 0.0000000000e+00 0.0000e+00 -1.0000e+00
       -1 -1    0    0    0  501 -0.0000000000e+00 -0.0000000000e+00 -2.2187703694e+02 2.2187703694e+02 0.0000000000e+00 0.0000e+00 1.0000e+00
       23  1    1    2    0    0 +0.0000000000e+00 +0.0000000000e+00 -2.1250782566e+02 2.3124624821e+02 9.1188000000e+01 0.0000e+00 -1.0000e+00
<mgrwt>
<rscale>  0 0.91188000E+02</rscale>
<asrwt>0</asrwt>
<pdfrwt beam="1">  1        1 0.14414170E-02 0.91188000E+02</pdfrwt>
<pdfrwt beam="2">  1       -1 0.34134932E-01 0.91188000E+02</pdfrwt>
<totfact> 0.67293356E+04</totfact>
</mgrwt>
</event>
<event>
 3      1 +4.2044000e+04 9.11880000e+01 7.54677100e-03 1.30000000e-01
        2 -1    0    0  501    0 +0.0000000000e+00 +0.0000000000e+00 +2.0228822056e+02 2.0228822056e+02 0.0000000000e+00 0.0000e+00 -1.0000e+00
       -2 -1    0    0    0  501 -0.0000000000e+00 -0.0000000000e+00 -1.0276489804e+01 1.0276489804e+01 0.0000000000e+00 0.0000e+00 1.0000e+00
       23  1    1    2    0    0 +0.0000000000e+00 +0.0000000000e+00 +1.9201173076e+02 2.1256471036e+02 9.1188000000e+01 0.0000e+00 -1.0000e+00
<mgrwt>
<rscale>  0 0.91188000E+02</rscale>
<asrwt>0</asrwt>
<pdfrwt beam="1">  1        2 0.31121262E-01 0.91188000E+02</pdfrwt>
<pdfrwt beam="2">  1       -2 0.15809986E-02 0.91188000E+02</pdfrwt>
<totfact> 0.15526660E+05</totfact>
</mgrwt>
</event>
<event>
 3      1 +4.2044000e+04 9.11880000e+01 7.54677100e-03 1.30000000e-01
       -1 -1    0    0    0  501 -0.0000000000e+00 +0.0000000000e+00 +1.2935104278e+03 1.2935104278e+03 0.0000000000e+00 0.0000e+00 1.0000e+00
        1 -1    0    0  501    0 +0.0000000000e+00 -0.0000000000e+00 -1.6071094530e+00 1.6071094530e+00 0.0000000000e+00 0.0000e+00 -1.0000e+00
       23  1    1    2    0    0 +0.0000000000e+00 -0.0000000000e+00 +1.2919033183e+03 1.2951175372e+03 9.1188000000e+01 0.0000e+00 1.0000e+00
<mgrwt>
<rscale>  0 0.91188000E+02</rscale>
<asrwt>0</asrwt>
<pdfrwt beam="2">  1        1 0.24724864E-03 0.91188000E+02</pdfrwt>
<pdfrwt beam="1">  1       -1 0.19900077E+00 0.91188000E+02</pdfrwt>
<totfact> 0.17896354E+04</totfact>
</mgrwt>
</event>
<event>
 3      1 +4.2044000e+04 9.11880000e+01 7.54677100e-03 1.30000000e-01
        2 -1    0    0  501    0 +0.0000000000e+00 +0.0000000000e+00 +3.6621604063e+02 3.6621604063e+02 0.0000000000e+00 0.0000e+00 -1.0000e+00
       -2 -1    0    0    0  501 -0.0000000000e+00 -0.0000000000e+00 -5.6764658162e+00 5.6764658162e+00 0.0000000000e+00 0.0000e+00 1.0000e+00
       23  1    1    2    0    0 +0.0000000000e+00 +0.0000000000e+00 +3.6053957482e+02 3.7189250645e+02 9.1188000000e+01 0.0000e+00 -1.0000e+00
<mgrwt>
<rscale>  0 0.91188000E+02</rscale>
<asrwt>0</asrwt>
<pdfrwt beam="1">  1        2 0.56340911E-01 0.91188000E+02</pdfrwt>
<pdfrwt beam="2">  1       -2 0.87330272E-03 0.91188000E+02</pdfrwt>
<totfact> 0.19330005E+05</totfact>
</mgrwt>
</event>
<event>
 3      1 +4.2044000e+04 9.11880000e+01 7.54677100e-03 1.30000000e-01
       -2 -1    0    0    0  501 -0.0000000000e+00 +0.0000000000e+00 +1.7436739991e+01 1.7436739991e+01 0.0000000000e+00 0.0000e+00 1.0000e+00
        2 -1    0    0  501    0 +0.0000000000e+00 -0.0000000000e+00 -1.1922026921e+02 1.1922026921e+02 0.0000000000e+00 0.0000e+00 -1.0000e+00
       23  1    1    2    0    0 +0.0000000000e+00 -0.0000000000e+00 -1.0178352922e+02 1.3665700921e+02 9.1188000000e+01 0.0000e+00 1.0000e+00
<mgrwt>
<rscale>  0 0.91188000E+02</rscale>
<asrwt>0</asrwt>
<pdfrwt beam="2">  1        2 0.18341580E-01 0.91188000E+02</pdfrwt>
<pdfrwt beam="1">  1       -2 0.26825753E-02 0.91188000E+02</pdfrwt>
<totfact> 0.12955016E+05</totfact>
</mgrwt>
</event>
<event>
 3      1 +4.2044000e+04 9.11880000e+01 7.54677100e-03 1.30000000e-01
        1 -1    0    0  501    0 +0.0000000000e+00 +0.0000000000e+00 +7.6245552596e+01 7.6245552596e+01 0.0000000000e+00 0.0000e+00 -1.0000e+00
       -1 -1    0    0    0  501 -0.0000000000e+00 -0.0000000000e+00 -2.7264709419e+01 2.7264709419e+01 0.0000000000e+00 0.0000e+00 1.0000e+00
       23  1    1    2    0    0 +0.0000000000e+00 +0.0000000000e+00 +4.8980843177e+01 1.0351026201e+02 9.1188000000e+01 0.0000e+00 -1.0000e+00
<mgrwt>
<rscale>  0 0.91188000E+02</rscale>
<asrwt>0</asrwt>
<pdfrwt beam="1">  1        1 0.11730085E-01 0.91188000E+02</pdfrwt>
<pdfrwt beam="2">  1       -1 0.41945707E-02 0.91188000E+02</pdfrwt>
<totfact> 0.99952613E+04</totfact>
</mgrwt>
</event>
<event>
 3      1 +4.2044000e+04 9.11880000e+01 7.54677100e-03 1.30000000e-01
       -2 -1    0    0    0  501 -0.0000000000e+00 +0.0000000000e+00 +1.1407919384e+00 1.1407919384e+00 0.0000000000e+00 0.0000e+00 1.0000e+00
        2 -1    0    0  501    0 +0.0000000000e+00 -0.0000000000e+00 -1.8222541430e+03 1.8222541430e+03 0.0000000000e+00 0.0000e+00 -1.0000e+00
       23  1    1    2    0    0 +0.0000000000e+00 -0.0000000000e+00 -1.8211133511e+03 1.8233949350e+03 9.1188000000e+01 0.0000e+00 1.0000e+00
<mgrwt>
<rscale>  0 0.91188000E+02</rscale>
<asrwt>0</asrwt>
<pdfrwt beam="2">  1        2 0.28034810E+00 0.91188000E+02</pdfrwt>
<pdfrwt beam="1">  1       -2 0.17550564E-03 0.91188000E+02</pdfrwt>
<totfact> 0.21240665E+05</totfact>
</mgrwt>
</event>
<event>
 3      1 +4.2044000e+04 9.11880000e+01 7.54677100e-03 1.30000000e-01
        1 -1    0    0  501    0 +0.0000000000e+00 +0.0000000000e+00 +8.2601185016e+02 8.2601185016e+02 0.0000000000e+00 0.0000e+00 -1.0000e+00
       -1 -1    0    0    0  501 -0.0000000000e+00 -0.0000000000e+00 -2.5166864562e+00 2.5166864562e+00 0.0000000000e+00 0.0000e+00 1.0000e+00
       23  1    1    2    0    0 +0.0000000000e+00 +0.0000000000e+00 +8.2349516370e+02 8.2852853662e+02 9.1188000000e+01 0.0000e+00 -1.0000e+00
<mgrwt>
<rscale>  0 0.91188000E+02</rscale>
<asrwt>0</asrwt>
<pdfrwt beam="1">  1        1 0.12707853E+00 0.91188000E+02</pdfrwt>
<pdfrwt beam="2">  1       -1 0.38718319E-03 0.91188000E+02</pdfrwt>
<totfact> 0.14081116E+05</totfact>
</mgrwt>
</event>
<event>
 3      1 +4.2044000e+04 9.11880000e+01 7.54677100e-03 1.30000000e-01
        1 -1    0    0  501    0 +0.0000000000e+00 +0.0000000000e+00 +8.1393650851e+02 8.1393650851e+02 0.0000000000e+00 0.0000e+00 -1.0000e+00
       -1 -1    0    0    0  501 -0.0000000000e+00 -0.0000000000e+00 -2.5540233351e+00 2.5540233351e+00 0.0000000000e+00 0.0000e+00 1.0000e+00
       23  1    1    2    0    0 +0.0000000000e+00 +0.0000000000e+00 +8.1138248517e+02 8.1649053184e+02 9.1188000000e+01 0.0000e+00 -1.0000e+00
<mgrwt>
<rscale>  0 0.91188000E+02</rscale>
<asrwt>0</asrwt>
<pdfrwt beam="1">  1        1 0.12522079E+00 0.91188000E+02</pdfrwt>
<pdfrwt beam="2">  1       -1 0.39292732E-03 0.91188000E+02</pdfrwt>
<totfact> 0.14102636E+05</totfact>
</mgrwt>
</event>
<event>
 3      1 +4.2044000e+04 9.11880000e+01 7.54677100e-03 1.30000000e-01
        1 -1    0    0  501    0 +0.0000000000e+00 +0.0000000000e+00 +1.3364171090e+02 1.3364171090e+02 0.0000000000e+00 0.0000e+00 -1.0000e+00
       -1 -1    0    0    0  501 -0.0000000000e+00 -0.0000000000e+00 -1.5555119895e+01 1.5555119895e+01 0.0000000000e+00 0.0000e+00 1.0000e+00
       23  1    1    2    0    0 +0.0000000000e+00 +0.0000000000e+00 +1.1808659100e+02 1.4919683079e+02 9.1188000000e+01 0.0000e+00 -1.0000e+00
<mgrwt>
<rscale>  0 0.91188000E+02</rscale>
<asrwt>0</asrwt>
<pdfrwt beam="1">  1        1 0.20560262E-01 0.91188000E+02</pdfrwt>
<pdfrwt beam="2">  1       -1 0.23930955E-02 0.91188000E+02</pdfrwt>
<totfact> 0.10977084E+05</totfact>
</mgrwt>
</event>
<event>
 3      1 +4.2044000e+04 9.11880000e+01 7.54677100e-03 1.30000000e-01
        2 -1    0    0  501    0 +0.0000000000e+00 +0.0000000000e+00 +2.2610216688e+02 2.2610216688e+02 0.0000000000e+00 0.0000e+00 1.0000e+00
       -2 -1    0    0    0  501 -0.0000000000e+00 -0.0000000000e+00 -9.1941305327e+00 9.1941305327e+00 0.0000000000e+00 0.0000e+00 -1.0000e+00
       23  1    1    2    0    0 +0.0000000000e+00 +0.0000000000e+00 +2.1690803634e+02 2.3529629741e+02 9.1188000000e+01 0.0000e+00 1.0000e+00
<mgrwt>
<rscale>  0 0.91188000E+02</rscale>
<asrwt>0</asrwt>
<pdfrwt beam="1">  1        2 0.34784944E-01 0.91188000E+02</pdfrwt>
<pdfrwt beam="2">  1       -2 0.14144818E-02 0.91188000E+02</pdfrwt>
<totfact> 0.16170192E+05</totfact>
</mgrwt>
</event>
<event>
 3      1 +4.2044000e+04 9.11880000e+01 7.54677100e-03 1.30000000e-01
       -3 -1    0    0    0  501 -0.0000000000e+00 +0.0000000000e+00 +1.8974308824e+01 1.8974308824e+01 0.0000000000e+00 0.0000e+00 1.0000e+00
        3 -1    0    0  501    0 +0.0000000000e+00 -0.0000000000e+00 -1.0955934444e+02 1.0955934444e+02 0.0000000000e+00 0.0000e+00 -1.0000e+00
       23  1    1    2    0    0 +0.0000000000e+00 -0.0000000000e+00 -9.0585035615e+01 1.2853365326e+02 9.1188000000e+01 0.0000e+00 1.0000e+00
<mgrwt>
<rscale>  0 0.91188000E+02</rscale>
<asrwt>0</asrwt>
<pdfrwt beam="2">  1        3 0.16855283E-01 0.91188000E+02</pdfrwt>
<pdfrwt beam="1">  1       -3 0.29191245E-02 0.91188000E+02</pdfrwt>
<totfact> 0.32661741E+04</totfact>
</mgrwt>
</event>
<event>
 3      1 +4.2044000e+04 9.11880000e+01 7.54677100e-03 1.30000000e-01
        2 -1    0    0  501    0 +0.0000000000e+00 +0.0000000000e+00 +4.2387153618e+02 4.2387153618e+02 0.0000000000e+00 0.0000e+00 -1.0000e+00
       -2 -1    0    0    0  501 -0.0000000000e+00 -0.0000000000e+00 -4.9043463846e+00 4.9043463846e+00 0.0000000000e+00 0.0000e+00 1.0000e+00
       23  1    1    2    0    0 +0.0000000000e+00 +0.0000000000e+00 +4.1896718980e+02 4.2877588257e+02 9.1188000000e+01 0.0000e+00 -1.0000e+00
<mgrwt>
<rscale>  0 0.91188000E+02</rscale>
<asrwt>0</asrwt>
<pdfrwt beam="1">  1        2 0.65210977E-01 0.91188000E+02</pdfrwt>
<pdfrwt beam="2">  1       -2 0.75451516E-03 0.91188000E+02</pdfrwt>
<totfact> 0.20370090E+05</totfact>
</mgrwt>
</event>
<event>
 3      1 +4.2044000e+04 9.11880000e+01 7.54677100e-03 1.30000000e-01
        2 -1    0    0  501    0 +0.0000000000e+00 +0.0000000000e+00 +1.6417641376e+02 1.6417641376e+02 0.0000000000e+00 0.0000e+00 -1.0000e+00
       -2 -1    0    0    0  501 -0.0000000000e+00 -0.0000000000e+00 -1.2662067518e+01 1.2662067518e+01 0.0000000000e+00 0.0000e+00 1.0000e+00
       23  1    1    2    0    0 +0.0000000000e+00 +0.0000000000e+00 +1.5151434624e+02 1.7683848128e+02 9.1188000000e+01 0.0000e+00 -1.0000e+00
<mgrwt>
<rscale>  0 0.91188000E+02</rscale>
<asrwt>0</asrwt>
<pdfrwt beam="1">  1        2 0.25257908E-01 0.91188000E+02</pdfrwt>
<pdfrwt beam="2">  1       -2 0.19480105E-02 0.91188000E+02</pdfrwt>
<totfact> 0.14416886E+05</totfact>
</mgrwt>
</event>
<event>
 3      1 +4.2044000e+04 9.11880000e+01 7.54677100e-03 1.30000000e-01
        4 -1    0    0  501    0 +0.0000000000e+00 +0.0000000000e+00 +3.4651779984e+01 3.4651779984e+01 0.0000000000e+00 0.0000e+00 1.0000e+00
       -4 -1    0    0    0  501 -0.0000000000e+00 -0.0000000000e+00 -5.9991516654e+01 5.9991516654e+01 0.0000000000e+00 0.0000e+00 -1.0000e+00
       23  1    1    2    0    0 +0.0000000000e+00 +0.0000000000e+00 -2.5339736669e+01 9.4643296638e+01 9.1188000000e+01 0.0000e+00 1.0000e+00
<mgrwt>
<rscale>  0 0.91188000E+02</rscale>
<asrwt>0</asrwt>
<pdfrwt beam="1">  1        4 0.53310431E-02 0.91188000E+02</pdfrwt>
<pdfrwt beam="2">  1       -4 0.92294640E-02 0.91188000E+02</pdfrwt>
<totfact> 0.26785602E+04</totfact>
</mgrwt>
</event>
<event>
 3      1 +4.2044000e+04 9.11880000e+01 7.54677100e-03 1.30000000e-01
       -1 -1    0    0    0  501 -0.0000000000e+00 +0.0000000000e+00 +1.9493374255e+00 1.9493374255e+00 0.0000000000e+00 0.0000e+00 1.0000e+00
        1 -1    0    0  501    0 +0.0000000000e+00 -0.0000000000e+00 -1.0664202148e+03 1.0664202148e+03 0.0000000000e+00 0.0000e+00 -1.0000e+00
       23  1    1    2    0    0 +0.0000000000e+00 -0.0000000000e+00 -1.0644708774e+03 1.0683695522e+03 9.1188000000e+01 0.0000e+00 1.0000e+00
<mgrwt>
<rscale>  0 0.91188000E+02</rscale>
<asrwt>0</asrwt>
<pdfrwt beam="2">  1        1 0.16406471E+00 0.91188000E+02</pdfrwt>
<pdfrwt beam="1">  1       -1 0.29989795E-03 0.91188000E+02</pdfrwt>
<totfact> 0.13338994E+05</totfact>
</mgrwt>
</event>
<event>
 3      1 +4.2044000e+04 9.11880000e+01 7.54677100e-03 1.30000000e-01
        1 -1    0    0  501    0 +0.0000000000e+00 +0.0000000000e+00 +1.2877887456e+01 1.2877887456e+01 0.0000000000e+00 0.0000e+00 -1.0000e+00
       -1 -1    0    0    0  501 -0.0000000000e+00 -0.0000000000e+00 -1.6142498862e+02 1.6142498862e+02 0.0000000000e+00 0.0000e+00 1.0000e+00
       23  1    1    2    0    0 +0.0000000000e+00 +0.0000000000e+00 -1.4854710116e+02 1.7430287608e+02 9.1188000000e+01 0.0000e+00 -1.0000e+00
<mgrwt>
<rscale>  0 0.91188000E+02</rscale>
<asrwt>0</asrwt>
<pdfrwt beam="1">  1        1 0.19812134E-02 0.91188000E+02</pdfrwt>
<pdfrwt beam="2">  1       -1 0.24834615E-01 0.91188000E+02</pdfrwt>
<totfact> 0.73460016E+04</totfact>
</mgrwt>
</event>
<event>
 3      1 +4.2044000e+04 9.11880000e+01 7.54677100e-03 1.30000000e-01
       -2 -1    0    0    0  501 -0.0000000000e+00 +0.0000000000e+00 +1.5975738699e+00 1.5975738699e+00 0.0000000000e+00 0.0000e+00 1.0000e+00
        2 -1    0    0  501    0 +0.0000000000e+00 -0.0000000000e+00 -1.3012311200e+03 1.3012311200e+03 0.0000000000e+00 0.0000e+00 -1.0000e+00
       23  1    1    2    0    0 +0.0000000000e+00 -0.0000000000e+00 -1.2996335461e+03 1.3028286939e+03 9.1188000000e+01 0.0000e+00 1.0000e+00
<mgrwt>
<rscale>  0 0.91188000E+02</rscale>
<asrwt>0</asrwt>
<pdfrwt beam="2">  1        2 0.20018933E+00 0.91188000E+02</pdfrwt>
<pdfrwt beam="1">  1       -2 0.24578069E-03 0.91188000E+02</pdfrwt>
<totfact> 0.24556962E+05</totfact>
</mgrwt>
</event>
<event>
 3      1 +4.2044000e+04 9.11880000e+01 7.54677100e-03 1.30000000e-01
       -2 -1    0    0    0  501 -0.0000000000e+00 +0.0000000000e+00 +6.3947440588e-01 6.3947440588e-01 0.0000000000e+00 0.0000e+00 1.0000e+00
        2 -1    0    0  501    0 +0.0000000000e+00 -0.0000000000e+00 -3.2508147580e+03 3.2508147580e+03 0.0000000000e+00 0.0000e+00 -1.0000e+00
       23  1    1    2    0    0 +0.0000000000e+00 -0.0000000000e+00 -3.2501752836e+03 3.2514542324e+03 9.1188000000e+01 0.0000e+00 1.0000e+00
<mgrwt>
<rscale>  0 0.91188000E+02</rscale>
<asrwt>0</asrwt>
<pdfrwt beam="2">  1        2 0.50012124E+00 0.91188000E+02</pdfrwt>
<pdfrwt beam="1">  1       -2 0.98381487E-04 0.91188000E+02</pdfrwt>
<totfact> 0.81188241E+04</totfact>
</mgrwt>
</event>
<event>
 3      1 +4.2044000e+04 9.11880000e+01 7.54677100e-03 1.30000000e-01
       -2 -1    0    0    0  501 -0.0000000000e+00 +0.0000000000e+00 +8.6870980356e-01 8.6870980356e-01 0.0000000000e+00 0.0000e+00 1.0000e+00
        2 -1    0    0  501    0 +0.0000000000e+00 -0.0000000000e+00 -2.3929888065e+03 2.3929888065e+03 0.0000000000e+00 0.0000e+00 -1.0000e+00
       23  1    1    2    0    0 +0.0000000000e+00 -0.0000000000e+00 -2.3921200967e+03 2.3938575163e+03 9.1188000000e+01 0.0000e+00 1.0000e+00
<mgrwt>
<rscale>  0 0.91188000E+02</rscale>
<asrwt>0</asrwt>
<pdfrwt beam="2">  1        2 0.36814945E+00 0.91188000E+02</pdfrwt>
<pdfrwt beam="1">  1       -2 0.13364863E-03 0.91188000E+02</pdfrwt>
<totfact> 0.15898090E+05</totfact>
</mgrwt>
</event>
<event>
 3      1 +4.2044000e+04 9.11880000e+01 7.54677100e-03 1.30000000e-01
        1 -1    0    0  501    0 +0.0000000000e+00 +0.0000000000e+00 +1.7873243904e+02 1.7873243904e+02 0.0000000000e+00 0.0000e+00 -1.0000e+00
       -1 -1    0    0    0  501 -0.0000000000e+00 -0.0000000000e+00 -1.1630864812e+01 1.1630864812e+01 0.0000000000e+00 0.0000e+00 1.0000e+00
       23  1    1    2    0    0 +0.0000000000e+00 +0.0000000000e+00 +1.6710157422e+02 1.9036330385e+02 9.1188000000e+01 0.0000e+00 -1.0000e+00
<mgrwt>
<rscale>  0 0.91188000E+02</rscale>
<asrwt>0</asrwt>
<pdfrwt beam="1">  1        1 0.27497296E-01 0.91188000E+02</pdfrwt>
<pdfrwt beam="2">  1       -1 0.17893639E-02 0.91188000E+02</pdfrwt>
<totfact> 0.11583137E+05</totfact>
</mgrwt>
</event>
<event>
 3      1 +4.2044000e+04 9.11880000e+01 7.54677100e-03 1.30000000e-01
       -1 -1    0    0    0  501 -0.0000000000e+00 +0.0000000000e+00 +1.2577624081e+00 1.2577624081e+00 0.0000000000e+00 0.0000e+00 1.0000e+00
        1 -1    0    0  501    0 +0.0000000000e+00 -0.0000000000e+00 -1.6527865856e+03 1.6527865856e+03 0.0000000000e+00 0.0000e+00 -1.0000e+00
       23  1    1    2    0    0 +0.0000000000e+00 -0.0000000000e+00 -1.6515288232e+03 1.6540443481e+03 9.1188000000e+01 0.0000e+00 1.0000e+00
<mgrwt>
<rscale>  0 0.91188000E+02</rscale>
<asrwt>0</asrwt>
<pdfrwt beam="2">  1        1 0.25427475E+00 0.91188000E+02</pdfrwt>
<pdfrwt beam="1">  1       -1 0.19350199E-03 0.91188000E+02</pdfrwt>
<totfact> 0.10110155E+05</totfact>
</mgrwt>
</event>
<event>
 3      1 +4.2044000e+04 9.11880000e+01 7.54677100e-03 1.30000000e-01
        2 -1    0    0  501    0 +0.0000000000e+00 +0.0000000000e+00 +6.7171639127e+01 6.7171639127e+01 0.0000000000e+00 0.0000e+00 1.0000e+00
       -2 -1    0    0    0  501 -0.0000000000e+00 -0.0000000000e+00 -3.0947775922e+01 3.0947775922e+01 0.0000000000e+00 0.0000e+00 -1.0000e+00
       23  1    1    2    0    0 +0.0000000000e+00 +0.0000000000e+00 +3.6223863206e+01 9.8119415049e+01 9.1188000000e+01 0.0000e+00 1.0000e+00
<mgrwt>
<rscale>  0 0.91188000E+02</rscale>
<asrwt>0</asrwt>
<pdfrwt beam="1">  1        2 0.10334098E-01 0.91188000E+02</pdfrwt>
<pdfrwt beam="2">  1       -2 0.47611963E-02 0.91188000E+02</pdfrwt>
<totfact> 0.10933100E+05</totfact>
</mgrwt>
</event>
<event>
 3      1 +4.2044000e+04 9.11880000e+01 7.54677100e-03 1.30000000e-01
        3 -1    0    0  501    0 +0.0000000000e+00 +0.0000000000e+00 +7.7016520591e+01 7.7016520591e+01 0.0000000000e+00 0.0000e+00 -1.0000e+00
       -3 -1    0    0    0  501 -0.0000000000e+00 -0.0000000000e+00 -2.6991778128e+01 2.6991778128e+01 0.0000000000e+00 0.0000e+00 1.0000e+00
       23  1    1    2    0    0 +0.0000000000e+00 +0.0000000000e+00 +5.0024742463e+01 1.0400829872e+02 9.1188000000e+01 0.0000e+00 -1.0000e+00
<mgrwt>
<rscale>  0 0.91188000E+02</rscale>
<asrwt>0</asrwt>
<pdfrwt beam="1">  1        3 0.11848695E-01 0.91188000E+02</pdfrwt>
<pdfrwt beam="2">  1       -3 0.41525813E-02 0.91188000E+02</pdfrwt>
<totfact> 0.34365063E+04</totfact>
</mgrwt>
</event>
<event>
 3      1 +4.2044000e+04 9.11880000e+01 7.54677100e-03 1.30000000e-01
        1 -1    0    0  501    0 +0.0000000000e+00 +0.0000000000e+00 +2.0281960218e+00 2.0281960218e+00 0.0000000000e+00 0.0000e+00 -1.0000e+00
       -1 -1    0    0    0  501 -0.0000000000e+00 -0.0000000000e+00 -1.0249565691e+03 1.0249565691e+03 0.0000000000e+00 0.0000e+00 1.0000e+00
       23  1    1    2    0    0 +0.0000000000e+00 +0.0000000000e+00 -1.0229283731e+03 1.0269847651e+03 9.1188000000e+01 0.0000e+00 -1.0000e+00
<mgrwt>
<rscale>  0 0.91188000E+02</rscale>
<asrwt>0</asrwt>
<pdfrwt beam="1">  1        1 0.31203050E-03 0.91188000E+02</pdfrwt>
<pdfrwt beam="2">  1       -1 0.15768545E+00 0.91188000E+02</pdfrwt>
<totfact> 0.24874187E+04</totfact>
</mgrwt>
</event>
<event>
 3      1 +4.2044000e+04 9.11880000e+01 7.54677100e-03 1.30000000e-01
        2 -1    0    0  501    0 +0.0000000000e+00 +0.0000000000e+00 +5.6908738169e+00 5.6908738169e+00 0.0000000000e+00 0.0000e+00 -1.0000e+00
       -2 -1    0    0    0  501 -0.0000000000e+00 -0.0000000000e+00 -3.6528886475e+02 3.6528886475e+02 0.0000000000e+00 0.0000e+00 1.0000e+00
       23  1    1    2    0    0 +0.0000000000e+00 +0.0000000000e+00 -3.5959799093e+02 3.7097973857e+02 9.1188000000e+01 0.0000e+00 -1.0000e+00
<mgrwt>
<rscale>  0 0.91188000E+02</rscale>
<asrwt>0</asrwt>
<pdfrwt beam="1">  1        2 0.87551894E-03 0.91188000E+02</pdfrwt>
<pdfrwt beam="2">  1       -2 0.56198294E-01 0.91188000E+02</pdfrwt>
<totfact> 0.45303350E+04</totfact>
</mgrwt>
</event>
<event>
 3      1 +4.2044000e+04 9.11880000e+01 7.54677100e-03 1.30000000e-01
       -1 -1    0    0    0  501 -0.0000000000e+00 +0.0000000000e+00 +2.1661709950e+02 2.1661709950e+02 0.0000000000e+00 0.0000e+00 1.0000e+00
        1 -1    0    0  501    0 +0.0000000000e+00 -0.0000000000e+00 -9.5967162371e+00 9.5967162371e+00 0.0000000000e+00 0.0000e+00 -1.0000e+00
       23  1    1    2    0    0 +0.0000000000e+00 -0.0000000000e+00 +2.0702038326e+02 2.2621381574e+02 9.1188000000e+01 0.0000e+00 1.0000e+00
<mgrwt>
<rscale>  0 0.91188000E+02</rscale>
<asrwt>0</asrwt>
<pdfrwt beam="2">  1        1 0.14764180E-02 0.91188000E+02</pdfrwt>
<pdfrwt beam="1">  1       -1 0.33325704E-01 0.91188000E+02</pdfrwt>
<totfact> 0.67789492E+04</totfact>
</mgrwt>
</event>
<event>
 3      1 +4.2044000e+04 9.11880000e+01 7.54677100e-03 1.30000000e-01
       -3 -1    0    0    0  501 -0.0000000000e+00 +0.0000000000e+00 +2.0981127219e+02 2.0981127219e+02 0.0000000000e+00 0.0000e+00 1.0000e+00
        3 -1    0    0  501    0 +0.0000000000e+00 -0.0000000000e+00 -9.9080131126e+00 9.9080131126e+00 0.0000000000e+00 0.0000e+00 -1.0000e+00
       23  1    1    2    0    0 +0.0000000000e+00 -0.0000000000e+00 +1.9990325907e+02 2.1971928530e+02 9.1188000000e+01 0.0000e+00 1.0000e+00
<mgrwt>
<rscale>  0 0.91188000E+02</rscale>
<asrwt>0</asrwt>
<pdfrwt beam="2">  1        3 0.15243099E-02 0.91188000E+02</pdfrwt>
<pdfrwt beam="1">  1       -3 0.32278654E-01 0.91188000E+02</pdfrwt>
<totfact> 0.27498750E+04</totfact>
</mgrwt>
</event>
<event>
 3      1 +4.2044000e+04 9.11880000e+01 7.54677100e-03 1.30000000e-01
       -2 -1    0    0    0  501 -0.0000000000e+00 +0.0000000000e+00 +4.1575237185e+00 4.1575237185e+00 0.0000000000e+00 0.0000e+00 1.0000e+00
        2 -1    0    0  501    0 +0.0000000000e+00 -0.0000000000e+00 -5.0001226133e+02 5.0001226133e+02 0.0000000000e+00 0.0000e+00 -1.0000e+00
       23  1    1    2    0    0 +0.0000000000e+00 -0.0000000000e+00 -4.9585473761e+02 5.0416978505e+02 9.1188000000e+01 0.0000e+00 1.0000e+00
<mgrwt>
<rscale>  0 0.91188000E+02</rscale>
<asrwt>0</asrwt>
<pdfrwt beam="2">  1        2 0.76924996E-01 0.91188000E+02</pdfrwt>
<pdfrwt beam="1">  1       -2 0.63961876E-03 0.91188000E+02</pdfrwt>
<totfact> 0.21542879E+05</totfact>
</mgrwt>
</event>
<event>
 3      1 +4.2044000e+04 9.11880000e+01 7.54677100e-03 1.30000000e-01
       -1 -1    0    0    0  501 -0.0000000000e+00 +0.0000000000e+00 +3.4983298065e+01 3.4983298065e+01 0.0000000000e+00 0.0000e+00 1.0000e+00
        1 -1    0    0  501    0 +0.0000000000e+00 -0.0000000000e+00 -5.9423009007e+01 5.9423009007e+01 0.0000000000e+00 0.0000e+00 -1.0000e+00
       23  1    1    2    0    0 +0.0000000000e+00 -0.0000000000e+00 -2.4439710942e+01 9.4406307072e+01 9.1188000000e+01 0.0000e+00 1.0000e+00
<mgrwt>
<rscale>  0 0.91188000E+02</rscale>
<asrwt>0</asrwt>
<pdfrwt beam="2">  1        1 0.91420013E-02 0.91188000E+02</pdfrwt>
<pdfrwt beam="1">  1       -1 0.53820459E-02 0.91188000E+02</pdfrwt>
<totfact> 0.96197780E+04</totfact>
</mgrwt>
</event>
<event>
 3      1 +4.2044000e+04 9.11880000e+01 7.54677100e-03 1.30000000e-01
       -2 -1    0    0    0  501 -0.0000000000e+00 +0.0000000000e+00 +1.2052416680e+01 1.2052416680e+01 0.0000000000e+00 0.0000e+00 1.0000e+00
        2 -1    0    0  501    0 +0.0000000000e+00 -0.0000000000e+00 -1.7248099623e+02 1.7248099623e+02 0.0000000000e+00 0.0000e+00 -1.0000e+00
       23  1    1    2    0    0 +0.0000000000e+00 -0.0000000000e+00 -1.6042857955e+02 1.8453341291e+02 9.1188000000e+01 0.0000e+00 1.0000e+00
<mgrwt>
<rscale>  0 0.91188000E+02</rscale>
<asrwt>0</asrwt>
<pdfrwt beam="2">  1        2 0.26535536E-01 0.91188000E+02</pdfrwt>
<pdfrwt beam="1">  1       -2 0.18542181E-02 0.91188000E+02</pdfrwt>
<totfact> 0.14667242E+05</totfact>
</mgrwt>
</event>
<event>
 3      1 +4.2044000e+04 9.11880000e+01 7.54677100e-03 1.30000000e-01
        1 -1    0    0  501    0 +0.0000000000e+00 +0.0000000000e+00 +1.6680459219e+03 1.6680459219e+03 0.0000000000e+00 0.0000e+00 -1.0000e+00
       -1 -1    0    0    0  501 -0.0000000000e+00 -0.0000000000e+00 -1.2462563582e+00 1.2462563582e+00 0.0000000000e+00 0.0000e+00 1.0000e+00
       23  1    1    2    0    0 +0.0000000000e+00 +0.0000000000e+00 +1.6667996656e+03 1.6692921783e+03 9.1188000000e+01 0.0000e+00 -1.0000e+00
<mgrwt>
<rscale>  0 0.91188000E+02</rscale>
<asrwt>0</asrwt>
<pdfrwt beam="1">  1        1 0.25662066E+00 0.91188000E+02</pdfrwt>
<pdfrwt beam="2">  1       -1 0.19173308E-03 0.91188000E+02</pdfrwt>
<totfact> 0.10015468E+05</totfact>
</mgrwt>
</event>
<event>
 3      1 +4.2044000e+04 9.11880000e+01 7.54677100e-03 1.30000000e-01
        3 -1    0    0  501    0 +0.0000000000e+00 +0.0000000000e+00 +6.0299133649e+00 6.0299133649e+00 0.0000000000e+00 0.0000e+00 -1.0000e+00
       -3 -1    0    0    0  501 -0.0000000000e+00 -0.0000000000e+00 -3.4475003374e+02 3.4475003374e+02 0.0000000000e+00 0.0000e+00 1.0000e+00
       23  1    1    2    0    0 +0.0000000000e+00 +0.0000000000e+00 -3.3872012038e+02 3.5077994711e+02 9.1188000000e+01 0.0000e+00 -1.0000e+00
<mgrwt>
<rscale>  0 0.91188000E+02</rscale>
<asrwt>0</asrwt>
<pdfrwt beam="1">  1        3 0.92767893E-03 0.91188000E+02</pdfrwt>
<pdfrwt beam="2">  1       -3 0.53038470E-01 0.91188000E+02</pdfrwt>
<totfact> 0.22172251E+04</totfact>
</mgrwt>
</event>
<event>
 3      1 +4.2044000e+04 9.11880000e+01 7.54677100e-03 1.30000000e-01
       -2 -1    0    0    0  501 -0.0000000000e+00 +0.0000000000e+00 +2.2811480967e+01 2.2811480967e+01 0.0000000000e+00 0.0000e+00 1.0000e+00
        2 -1    0    0  501    0 +0.0000000000e+00 -0.0000000000e+00 -9.1130112904e+01 9.1130112904e+01 0.0000000000e+00 0.0000e+00 -1.0000e+00
       23  1    1    2    0    0 +0.0000000000e+00 -0.0000000000e+00 -6.8318631937e+01 1.1394159387e+02 9.1188000000e+01 0.0000e+00 1.0000e+00
<mgrwt>
<rscale>  0 0.91188000E+02</rscale>
<asrwt>0</asrwt>
<pdfrwt beam="2">  1        2 0.14020018E-01 0.91188000E+02</pdfrwt>
<pdfrwt beam="1">  1       -2 0.35094585E-02 0.91188000E+02</pdfrwt>
<totfact> 0.11925813E+05</totfact>
</mgrwt>
</event>
<event>
 3      1 +4.2044000e+04 9.11880000e+01 7.54677100e-03 1.30000000e-01
        1 -1    0    0  501    0 +0.0000000000e+00 +0.0000000000e+00 +3.6907813876e+02 3.6907813876e+02 0.0000000000e+00 0.0000e+00 -1.0000e+00
       -1 -1    0    0    0  501 -0.0000000000e+00 -0.0000000000e+00 -5.6324464055e+00 5.6324464055e+00 0.0000000000e+00 0.0000e+00 1.0000e+00
       23  1    1    2    0    0 +0.0000000000e+00 +0.0000000000e+00 +3.6344569235e+02 3.7471058516e+02 9.1188000000e+01 0.0000e+00 -1.0000e+00
<mgrwt>
<rscale>  0 0.91188000E+02</rscale>
<asrwt>0</asrwt>
<pdfrwt beam="1">  1        1 0.56781233E-01 0.91188000E+02</pdfrwt>
<pdfrwt beam="2">  1       -1 0.86653050E-03 0.91188000E+02</pdfrwt>
<totfact> 0.13302462E+05</totfact>
</mgrwt>
</event>
<event>
 3      1 +4.2044000e+04 9.11880000e+01 7.54677100e-03 1.30000000e-01
       -1 -1    0    0    0  501 -0.0000000000e+00 +0.0000000000e+00 +3.2411322178e+01 3.2411322178e+01 0.0000000000e+00 0.0000e+00 1.0000e+00
        1 -1    0    0  501    0 +0.0000000000e+00 -0.0000000000e+00 -6.4138476814e+01 6.4138476814e+01 0.0000000000e+00 0.0000e+00 -1.0000e+00
       23  1    1    2    0    0 +0.0000000000e+00 -0.0000000000e+00 -3.1727154636e+01 9.6549798992e+01 9.1188000000e+01 0.0000e+00 1.0000e+00
<mgrwt>
<rscale>  0 0.91188000E+02</rscale>
<asrwt>0</asrwt>
<pdfrwt beam="2">  1        1 0.98674580E-02 0.91188000E+02</pdfrwt>
<pdfrwt beam="1">  1       -1 0.49863572E-02 0.91188000E+02</pdfrwt>
<totfact> 0.97319497E+04</totfact>
</mgrwt>
</event>
<event>
 3      1 +4.2044000e+04 9.11880000e+01 7.54677100e-03 1.30000000e-01
       -3 -1    0    0    0  501 -0.0000000000e+00 +0.0000000000e+00 +2.3543811817e+01 2.3543811817e+01 0.0000000000e+00 0.0000e+00 1.0000e+00
        3 -1    0    0  501    0 +0.0000000000e+00 -0.0000000000e+00 -8.8295508483e+01 8.8295508483e+01 0.0000000000e+00 0.0000e+00 -1.0000e+00
       23  1    1    2    0    0 +0.0000000000e+00 -0.0000000000e+00 -6.4751696666e+01 1.1183932030e+02 9.1188000000e+01 0.0000e+00 1.0000e+00
<mgrwt>
<rscale>  0 0.91188000E+02</rscale>
<asrwt>0</asrwt>
<pdfrwt beam="2">  1        3 0.13583925E-01 0.91188000E+02</pdfrwt>
<pdfrwt beam="1">  1       -3 0.36221248E-02 0.91188000E+02</pdfrwt>
<totfact> 0.33802758E+04</totfact>
</mgrwt>
</event>
<event>
 3      1 +4.2044000e+04 9.11880000e+01 7.54677100e-03 1.30000000e-01
       -1 -1    0    0    0  501 -0.0000000000e+00 +0.0000000000e+00 +2.7067192803e+01 2.7067192803e+01 0.0000000000e+00 0.0000e+00 1.0000e+00
        1 -1    0    0  501    0 +0.0000000000e+00 -0.0000000000e+00 -7.6801936985e+01 7.6801936985e+01 0.0000000000e+00 0.0000e+00 -1.0000e+00
       23  1    1    2    0    0 +0.0000000000e+00 -0.0000000000e+00 -4.9734744182e+01 1.0386912979e+02 9.1188000000e+01 0.0000e+00 1.0000e+00
<mgrwt>
<rscale>  0 0.91188000E+02</rscale>
<asrwt>0</asrwt>
<pdfrwt beam="2">  1        1 0.11815683E-01 0.91188000E+02</pdfrwt>
<pdfrwt beam="1">  1       -1 0.41641835E-02 0.91188000E+02</pdfrwt>
<totfact> 0.10006641E+05</totfact>
</mgrwt>
</event>
<event>
 3      1 +4.2044000e+04 9.11880000e+01 7.54677100e-03 1.30000000e-01
        2 -1    0    0  501    0 +0.0000000000e+00 +0.0000000000e+00 +1.4165897312e+03 1.4165897312e+03 0.0000000000e+00 0.0000e+00 -1.0000e+00
       -2 -1    0    0    0  501 -0.0000000000e+00 -0.0000000000e+00 -1.4674769908e+00 1.4674769908e+00 0.0000000000e+00 0.0000e+00 1.0000e+00
       23  1    1    2    0    0 +0.0000000000e+00 +0.0000000000e+00 +1.4151222542e+03 1.4180572082e+03 9.1188000000e+01 0.0000e+00 -1.0000e+00
<mgrwt>
<rscale>  0 0.91188000E+02</rscale>
<asrwt>0</asrwt>
<pdfrwt beam="1">  1        2 0.21793579E+00 0.91188000E+02</pdfrwt>
<pdfrwt beam="2">  1       -2 0.22576682E-03 0.91188000E+02</pdfrwt>
<totfact> 0.24049487E+05</totfact>
</mgrwt>
</event>
<event>
 3      1 +4.2044000e+04 9.11880000e+01 7.54677100e-03 1.30000000e-01
       -2 -1    0    0    0  501 -0.0000000000e+00 +0.0000000000e+00 +2.2024977219e+00 2.2024977219e+00 0.0000000000e+00 0.0000e+00 -1.0000e+00
        2 -1    0    0  501    0 +0.0000000000e+00 -0.0000000000e+00 -9.4384335354e+02 9.4384335354e+02 0.0000000000e+00 0.0000e+00 1.0000e+00
       23  1    1    2    0    0 +0.0000000000e+00 -0.0000000000e+00 -9.4164085582e+02 9.4604585126e+02 9.1188000000e+01 0.0000e+00 -1.0000e+00
<mgrwt>
<rscale>  0 0.91188000E+02</rscale>
<asrwt>0</asrwt>
<pdfrwt beam="2">  1        2 0.14520668E+00 0.91188000E+02</pdfrwt>
<pdfrwt beam="1">  1       -2 0.33884578E-03 0.91188000E+02</pdfrwt>
<totfact> 0.24901781E+05</totfact>
</mgrwt>
</event>
<event>
 3      1 +4.2044000e+04 9.11880000e+01 7.54677100e-03 1.30000000e-01
       -2 -1    0    0    0  501 -0.0000000000e+00 +0.0000000000e+00 +7.6849568205e+00 7.6849568205e+00 0.0000000000e+00 0.0000e+00 -1.0000e+00
        2 -1    0    0  501    0 +0.0000000000e+00 -0.0000000000e+00 -2.7050416607e+02 2.7050416607e+02 0.0000000000e+00 0.0000e+00 1.0000e+00
       23  1    1    2    0    0 +0.0000000000e+00 -0.0000000000e+00 -2.6281920925e+02 2.7818912289e+02 9.1188000000e+01 0.0000e+00 -1.0000e+00
<mgrwt>
<rscale>  0 0.91188000E+02</rscale>
<asrwt>0</asrwt>
<pdfrwt beam="2">  1        2 0.41616022E-01 0.91188000E+02</pdfrwt>
<pdfrwt beam="1">  1       -2 0.11823011E-02 0.91188000E+02</pdfrwt>
<totfact> 0.17280023E+05</totfact>
</mgrwt>
</event>
<event>
 3      1 +4.2044000e+04 9.11880000e+01 7.54677100e-03 1.30000000e-01
       -1 -1    0    0    0  501 -0.0000000000e+00 +0.0000000000e+00 +6.8143152899e+01 6.8143152899e+01 0.0000000000e+00 0.0000e+00 1.0000e+00
        1 -1    0    0  501    0 +0.0000000000e+00 -0.0000000000e+00 -3.0506554915e+01 3.0506554915e+01 0.0000000000e+00 0.0000e+00 -1.0000e+00
       23  1    1    2    0    0 +0.0000000000e+00 -0.0000000000e+00 +3.7636597984e+01 9.8649707814e+01 9.1188000000e+01 0.0000e+00 1.0000e+00
<mgrwt>
<rscale>  0 0.91188000E+02</rscale>
<asrwt>0</asrwt>
<pdfrwt beam="2">  1        1 0.46933162E-02 0.91188000E+02</pdfrwt>
<pdfrwt beam="1">  1       -1 0.10483562E-01 0.91188000E+02</pdfrwt>
<totfact> 0.86887890E+04</totfact>
</mgrwt>
</event>
<event>
 3      1 +4.2044000e+04 9.11880000e+01 7.54677100e-03 1.30000000e-01
       -1 -1    0    0    0  501 -0.0000000000e+00 +0.0000000000e+00 +2.7966729397e+00 2.7966729397e+00 0.0000000000e+00 0.0000e+00 1.0000e+00
        1 -1    0    0  501    0 +0.0000000000e+00 -0.0000000000e+00 -7.4331639089e+02 7.4331639089e+02 0.0000000000e+00 0.0000e+00 -1.0000e+00
       23  1    1    2    0    0 +0.0000000000e+00 -0.0000000000e+00 -7.4051971795e+02 7.4611306383e+02 9.1188000000e+01 0.0000e+00 1.0000e+00
<mgrwt>
<rscale>  0 0.91188000E+02</rscale>
<asrwt>0</asrwt>
<pdfrwt beam="2">  1        1 0.11435640E+00 0.91188000E+02</pdfrwt>
<pdfrwt beam="1">  1       -1 0.43025726E-03 0.91188000E+02</pdfrwt>
<totfact> 0.14191674E+05</totfact>
</mgrwt>
</event>
<event>
 3      1 +4.2044000e+04 9.11880000e+01 7.54677100e-03 1.30000000e-01
       -1 -1    0    0    0  501 -0.0000000000e+00 +0.0000000000e+00 +5.8621570953e+00 5.8621570953e+00 0.0000000000e+00 0.0000e+00 1.0000e+00
        1 -1    0    0  501    0 +0.0000000000e+00 -0.0000000000e+00 -3.5461568194e+02 3.5461568194e+02 0.0000000000e+00 0.0000e+00 -1.0000e+00
       23  1    1    2    0    0 +0.0000000000e+00 -0.0000000000e+00 -3.4875352485e+02 3.6047783904e+02 9.1188000000e+01 0.0000e+00 1.0000e+00
<mgrwt>
<rscale>  0 0.91188000E+02</rscale>
<asrwt>0</asrwt>
<pdfrwt beam="2">  1        1 0.54556265E-01 0.91188000E+02</pdfrwt>
<pdfrwt beam="1">  1       -1 0.90187021E-03 0.91188000E+02</pdfrwt>
<totfact> 0.13209711E+05</totfact>
</mgrwt>
</event>
<event>
 3      1 +4.2044000e+04 9.11880000e+01 7.54677100e-03 1.30000000e-01
       -2 -1    0    0    0  501 -0.0000000000e+00 +0.0000000000e+00 +5.9728539997e-01 5.9728539997e-01 0.0000000000e+00 0.0000e+00 1.0000e+00
        2 -1    0    0  501    0 +0.0000000000e+00 -0.0000000000e+00 -3.4804347069e+03 3.4804347069e+03 0.0000000000e+00 0.0000e+00 -1.0000e+00
       23  1    1    2    0    0 +0.0000000000e+00 -0.0000000000e+00 -3.4798374215e+03 3.4810319923e+03 9.1188000000e+01 0.0000e+00 1.0000e+00
<mgrwt>
<rscale>  0 0.91188000E+02</rscale>
<asrwt>0</asrwt>
<pdfrwt beam="2">  1        2 0.53545493E+00 0.91188000E+02</pdfrwt>
<pdfrwt beam="1">  1       -2 0.91889472E-04 0.91188000E+02</pdfrwt>
<totfact> 0.64349556E+04</totfact>
</mgrwt>
</event>
<event>
 3      1 +4.2044000e+04 9.11880000e+01 7.54677100e-03 1.30000000e-01
        4 -1    0    0  501    0 +0.0000000000e+00 +0.0000000000e+00 +4.6460833021e+00 4.6460833021e+00 0.0000000000e+00 0.0000e+00 -1.0000e+00
       -4 -1    0    0    0  501 -0.0000000000e+00 -0.0000000000e+00 -4.4743339730e+02 4.4743339730e+02 0.0000000000e+00 0.0000e+00 1.0000e+00
       23  1    1    2    0    0 +0.0000000000e+00 +0.0000000000e+00 -4.4278731400e+02 4.5207948060e+02 9.1188000000e+01 0.0000e+00 -1.0000e+00
<mgrwt>
<rscale>  0 0.91188000E+02</rscale>
<asrwt>0</asrwt>
<pdfrwt beam="1">  1        4 0.71478182E-03 0.91188000E+02</pdfrwt>
<pdfrwt beam="2">  1       -4 0.68835929E-01 0.91188000E+02</pdfrwt>
<totfact> 0.14001837E+04</totfact>
</mgrwt>
</event>
<event>
 3      1 +4.2044000e+04 9.11880000e+01 7.54677100e-03 1.30000000e-01
       -1 -1    0    0    0  501 -0.0000000000e+00 +0.0000000000e+00 +4.3288862782e+02 4.3288862782e+02 0.0000000000e+00 0.0000e+00 1.0000e+00
        1 -1    0    0  501    0 +0.0000000000e+00 -0.0000000000e+00 -4.8021886056e+00 4.8021886056e+00 0.0000000000e+00 0.0000e+00 -1.0000e+00
       23  1    1    2    0    0 +0.0000000000e+00 -0.0000000000e+00 +4.2808643921e+02 4.3769081642e+02 9.1188000000e+01 0.0000e+00 1.0000e+00
<mgrwt>
<rscale>  0 0.91188000E+02</rscale>
<asrwt>0</asrwt>
<pdfrwt beam="2">  1        1 0.73879859E-03 0.91188000E+02</pdfrwt>
<pdfrwt beam="1">  1       -1 0.66598220E-01 0.91188000E+02</pdfrwt>
<totfact> 0.51115278E+04</totfact>
</mgrwt>
</event>
<event>
 3      1 +4.2044000e+04 9.11880000e+01 7.54677100e-03 1.30000000e-01
        3 -1    0    0  501    0 +0.0000000000e+00 +0.0000000000e+00 +1.0158859241e+02 1.0158859241e+02 0.0000000000e+00 0.0000e+00 -1.0000e+00
       -3 -1    0    0    0  501 -0.0000000000e+00 -0.0000000000e+00 -2.0463053840e+01 2.0463053840e+01 0.0000000000e+00 0.0000e+00 1.0000e+00
       23  1    1    2    0    0 +0.0000000000e+00 +0.0000000000e+00 +8.1125538568e+01 1.2205164625e+02 9.1188000000e+01 0.0000e+00 -1.0000e+00
<mgrwt>
<rscale>  0 0.91188000E+02</rscale>
<asrwt>0</asrwt>
<pdfrwt beam="1">  1        3 0.15629014E-01 0.91188000E+02</pdfrwt>
<pdfrwt beam="2">  1       -3 0.31481622E-02 0.91188000E+02</pdfrwt>
<totfact> 0.33095524E+04</totfact>
</mgrwt>
</event>
<event>
 3      1 +4.2044000e+04 9.11880000e+01 7.54677100e-03 1.30000000e-01
       -3 -1    0    0    0  501 -0.0000000000e+00 +0.0000000000e+00 +4.8326287081e+00 4.8326287081e+00 0.0000000000e+00 0.0000e+00 1.0000e+00
        3 -1    0    0  501    0 +0.0000000000e+00 -0.0000000000e+00 -4.3016191841e+02 4.3016191841e+02 0.0000000000e+00 0.0000e+00 -1.0000e+00
       23  1    1    2    0    0 +0.0000000000e+00 -0.0000000000e+00 -4.2532928970e+02 4.3499454711e+02 9.1188000000e+01 0.0000e+00 1.0000e+00
<mgrwt>
<rscale>  0 0.91188000E+02</rscale>
<asrwt>0</asrwt>
<pdfrwt beam="2">  1        3 0.66178768E-01 0.91188000E+02</pdfrwt>
<pdfrwt beam="1">  1       -3 0.74348121E-03 0.91188000E+02</pdfrwt>
<totfact> 0.19593493E+04</totfact>
</mgrwt>
</event>
<event>
 3      1 +4.2044000e+04 9.11880000e+01 7.54677100e-03 1.30000000e-01
        1 -1    0    0  501    0 +0.0000000000e+00 +0.0000000000e+00 +1.8153835713e+01 1.8153835713e+01 0.0000000000e+00 0.0000e+00 -1.0000e+00
       -1 -1    0    0    0  501 -0.0000000000e+00 -0.0000000000e+00 -1.1451094242e+02 1.1451094242e+02 0.0000000000e+00 0.0000e+00 1.0000e+00
       23  1    1    2    0    0 +0.0000000000e+00 +0.0000000000e+00 -9.6357106708e+01 1.3266477813e+02 9.1188000000e+01 0.0000e+00 -1.0000e+00
<mgrwt>
<rscale>  0 0.91188000E+02</rscale>
<asrwt>0</asrwt>
<pdfrwt beam="1">  1        1 0.27928978E-02 0.91188000E+02</pdfrwt>
<pdfrwt beam="2">  1       -1 0.17617068E-01 0.91188000E+02</pdfrwt>
<totfact> 0.79251442E+04</totfact>
</mgrwt>
</event>
<event>
 3      1 +4.2044000e+04 9.11880000e+01 7.54677100e-03 1.30000000e-01
       -1 -1    0    0    0  501 -0.0000000000e+00 +0.0000000000e+00 +2.8114888459e+01 2.8114888459e+01 0.0000000000e+00 0.0000e+00 1.0000e+00
        1 -1    0    0  501    0 +0.0000000000e+00 -0.0000000000e+00 -7.3939928271e+01 7.3939928271e+01 0.0000000000e+00 0.0000e+00 -1.0000e+00
       23  1    1    2    0    0 +0.0000000000e+00 -0.0000000000e+00 -4.5825039812e+01 1.0205481673e+02 9.1188000000e+01 0.0000e+00 1.0000e+00
<mgrwt>
<rscale>  0 0.91188000E+02</rscale>
<asrwt>0</asrwt>
<pdfrwt beam="2">  1        1 0.11375374E-01 0.91188000E+02</pdfrwt>
<pdfrwt beam="1">  1       -1 0.43253675E-02 0.91188000E+02</pdfrwt>
<totfact> 0.99474591E+04</totfact>
</mgrwt>
</event>
<event>
 3      1 +4.2044000e+04 9.11880000e+01 7.54677100e-03 1.30000000e-01
        2 -1    0    0  501    0 +0.0000000000e+00 +0.0000000000e+00 +6.7621717232e+02 6.7621717232e+02 0.0000000000e+00 0.0000e+00 1.0000e+00
       -2 -1    0    0    0  501 -0.0000000000e+00 -0.0000000000e+00 -3.0741793038e+00 3.0741793038e+00 0.0000000000e+00 0.0000e+00 -1.0000e+00
       23  1    1    2    0    0 +0.0000000000e+00 +0.0000000000e+00 +6.7314299301e+02 6.7929135162e+02 9.1188000000e+01 0.0000e+00 1.0000e+00
<mgrwt>
<rscale>  0 0.91188000E+02</rscale>
<asrwt>0</asrwt>
<pdfrwt beam="1">  1        2 0.10403329E+00 0.91188000E+02</pdfrwt>
<pdfrwt beam="2">  1       -2 0.47295120E-03 0.91188000E+02</pdfrwt>
<totfact> 0.23511386E+05</totfact>
</mgrwt>
</event>
<event>
 3      1 +4.2044000e+04 9.11880000e+01 7.54677100e-03 1.30000000e-01
       -1 -1    0    0    0  501 -0.0000000000e+00 +0.0000000000e+00 +2.2399570594e+00 2.2399570594e+00 0.0000000000e+00 0.0000e+00 1.0000e+00
        1 -1    0    0  501    0 +0.0000000000e+00 -0.0000000000e+00 -9.2805923545e+02 9.2805923545e+02 0.0000000000e+00 0.0000e+00 -1.0000e+00
       23  1    1    2    0    0 +0.0000000000e+00 -0.0000000000e+00 -9.2581927839e+02 9.3029919251e+02 9.1188000000e+01 0.0000e+00 1.0000e+00
<mgrwt>
<rscale>  0 0.91188000E+02</rscale>
<asrwt>0</asrwt>
<pdfrwt beam="2">  1        1 0.14277881E+00 0.91188000E+02</pdfrwt>
<pdfrwt beam="1">  1       -1 0.34460765E-03 0.91188000E+02</pdfrwt>
<totfact> 0.13834029E+05</totfact>
</mgrwt>
</event>
<event>
 3      1 +4.2044000e+04 9.11880000e+01 7.54677100e-03 1.30000000e-01
        2 -1    0    0  501    0 +0.0000000000e+00 +0.0000000000e+00 +6.4377225266e+02 6.4377225266e+02 0.0000000000e+00 0.0000e+00 -1.0000e+00
       -2 -1    0    0    0  501 -0.0000000000e+00 -0.0000000000e+00 -3.2291122014e+00 3.2291122014e+00 0.0000000000e+00 0.0000e+00 1.0000e+00
       23  1    1    2    0    0 +0.0000000000e+00 +0.0000000000e+00 +6.4054314046e+02 6.4700136486e+02 9.1188000000e+01 0.0000e+00 -1.0000e+00
<mgrwt>
<rscale>  0 0.91188000E+02</rscale>
<asrwt>0</asrwt>
<pdfrwt beam="1">  1        2 0.99041783E-01 0.91188000E+02</pdfrwt>
<pdfrwt beam="2">  1       -2 0.49678700E-03 0.91188000E+02</pdfrwt>
<totfact> 0.23219660E+05</totfact>
</mgrwt>
</event>
<event>
 3      1 +4.2044000e+04 9.11880000e+01 7.54677100e-03 1.30000000e-01
       -1 -1    0    0    0  501 -0.0000000000e+00 +0.0000000000e+00 +3.3118319683e+02 3.3118319683e+02 0.0000000000e+00 0.0000e+00 1.0000e+00
        1 -1    0    0  501    0 +0.0000000000e+00 -0.0000000000e+00 -6.2769272592e+00 6.2769272592e+00 0.0000000000e+00 0.0000e+00 -1.0000e+00
       23  1    1    2    0    0 +0.0000000000e+00 -0.0000000000e+00 +3.2490626958e+02 3.3746012409e+02 9.1188000000e+01 0.0000e+00 1.0000e+00
<mgrwt>
<rscale>  0 0.91188000E+02</rscale>
<asrwt>0</asrwt>
<pdfrwt beam="2">  1        1 0.96568138E-03 0.91188000E+02</pdfrwt>
<pdfrwt beam="1">  1       -1 0.50951247E-01 0.91188000E+02</pdfrwt>
<totfact> 0.58158771E+04</totfact>
</mgrwt>
</event>
<event>
 3      1 +4.2044000e+04 9.11880000e+01 7.54677100e-03 1.30000000e-01
        1 -1    0    0  501    0 +0.0000000000e+00 +0.0000000000e+00 +9.2283576278e+01 9.2283576278e+01 0.0000000000e+00 0.0000e+00 -1.0000e+00
       -1 -1    0    0    0  501 -0.0000000000e+00 -0.0000000000e+00 -2.2526357558e+01 2.2526357558e+01 0.0000000000e+00 0.0000e+00 1.0000e+00
       23  1    1    2    0    0 +0.0000000000e+00 +0.0000000000e+00 +6.9757218720e+01 1.1480993384e+02 9.1188000000e+01 0.0000e+00 -1.0000e+00
<mgrwt>
<rscale>  0 0.91188000E+02</rscale>
<asrwt>0</asrwt>
<pdfrwt beam="1">  1        1 0.14197473E-01 0.91188000E+02</pdfrwt>
<pdfrwt beam="2">  1       -1 0.34655935E-02 0.91188000E+02</pdfrwt>
<totfact> 0.10304509E+05</totfact>
</mgrwt>
</event>
<event>
 3      1 +4.2044000e+04 9.11880000e+01 7.54677100e-03 1.30000000e-01
        1 -1    0    0  501    0 +0.0000000000e+00 +0.0000000000e+00 +7.1978053707e+02 7.1978053707e+02 0.0000000000e+00 0.0000e+00 -1.0000e+00
       -1 -1    0    0    0  501 -0.0000000000e+00 -0.0000000000e+00 -2.8881203769e+00 2.8881203769e+00 0.0000000000e+00 0.0000e+00 1.0000e+00
       23  1    1    2    0    0 +0.0000000000e+00 +0.0000000000e+00 +7.1689241670e+02 7.2266865745e+02 9.1188000000e+01 0.0000e+00 -1.0000e+00
<mgrwt>
<rscale>  0 0.91188000E+02</rscale>
<asrwt>0</asrwt>
<pdfrwt beam="1">  1        1 0.11073532E+00 0.91188000E+02</pdfrwt>
<pdfrwt beam="2">  1       -1 0.44432679E-03 0.91188000E+02</pdfrwt>
<totfact> 0.14206459E+05</totfact>
</mgrwt>
</event>
<event>
 3      1 +4.2044000e+04 9.11880000e+01 7.54677100e-03 1.30000000e-01
       -1 -1    0    0    0  501 -0.0000000000e+00 +0.0000000000e+00 +2.4785884059e+01 2.4785884059e+01 0.0000000000e+00 0.0000e+00 1.0000e+00
        1 -1    0    0  501    0 +0.0000000000e+00 -0.0000000000e+00 -8.3870836765e+01 8.3870836765e+01 0.0000000000e+00 0.0000e+00 -1.0000e+00
       23  1    1    2    0    0 +0.0000000000e+00 -0.0000000000e+00 -5.9084952705e+01 1.0865672082e+02 9.1188000000e+01 0.0000e+00 1.0000e+00
<mgrwt>
<rscale>  0 0.91188000E+02</rscale>
<asrwt>0</asrwt>
<pdfrwt beam="2">  1        1 0.12903206E-01 0.91188000E+02</pdfrwt>
<pdfrwt beam="1">  1       -1 0.38132129E-02 0.91188000E+02</pdfrwt>
<totfact> 0.10146797E+05</totfact>
</mgrwt>
</event>
<event>
 3      1 +4.2044000e+04 9.11880000e+01 7.54677100e-03 1.30000000e-01
       -2 -1    0    0    0  501 -0.0000000000e+00 +0.0000000000e+00 +1.2591561885e+02 1.2591561885e+02 0.0000000000e+00 0.0000e+00 1.0000e+00
        2 -1    0    0  501    0 +0.0000000000e+00 -0.0000000000e+00 -1.6509570894e+01 1.6509570894e+01 0.0000000000e+00 0.0000e+00 -1.0000e+00
       23  1    1    2    0    0 +0.0000000000e+00 -0.0000000000e+00 +1.0940604796e+02 1.4242518974e+02 9.1188000000e+01 0.0000e+00 1.0000e+00
<mgrwt>
<rscale>  0 0.91188000E+02</rscale>
<asrwt>0</asrwt>
<pdfrwt beam="2">  1        2 0.25399341E-02 0.91188000E+02</pdfrwt>
<pdfrwt beam="1">  1       -2 0.19371633E-01 0.91188000E+02</pdfrwt>
<totfact> 0.74213758E+04</totfact>
</mgrwt>
</event>
<event>
 3      1 +4.2044000e+04 9.11880000e+01 7.54677100e-03 1.30000000e-01
       -2 -1    0    0    0  501 -0.0000000000e+00 +0.0000000000e+00 +1.3118098942e+02 1.3118098942e+02 0.0000000000e+00 0.0000e+00 1.0000e+00
        2 -1    0    0  501    0 +0.0000000000e+00 -0.0000000000e+00 -1.5846906212e+01 1.5846906212e+01 0.0000000000e+00 0.0000e+00 -1.0000e+00
       23  1    1    2    0    0 +0.0000000000e+00 -0.0000000000e+00 +1.1533408320e+02 1.4702789563e+02 9.1188000000e+01 0.0000e+00 1.0000e+00
<mgrwt>
<rscale>  0 0.91188000E+02</rscale>
<asrwt>0</asrwt>
<pdfrwt beam="2">  1        2 0.24379857E-02 0.91188000E+02</pdfrwt>
<pdfrwt beam="1">  1       -2 0.20181690E-01 0.91188000E+02</pdfrwt>
<totfact> 0.73201064E+04</totfact>
</mgrwt>
</event>
<event>
 3      1 +4.2044000e+04 9.11880000e+01 7.54677100e-03 1.30000000e-01
        2 -1    0    0  501    0 +0.0000000000e+00 +0.0000000000e+00 +1.9119025507e+01 1.9119025507e+01 0.0000000000e+00 0.0000e+00 -1.0000e+00
       -2 -1    0    0    0  501 -0.0000000000e+00 -0.0000000000e+00 -1.0873006238e+02 1.0873006238e+02 0.0000000000e+00 0.0000e+00 1.0000e+00
       23  1    1    2    0    0 +0.0000000000e+00 +0.0000000000e+00 -8.9611036872e+01 1.2784908789e+02 9.1188000000e+01 0.0000e+00 -1.0000e+00
<mgrwt>
<rscale>  0 0.91188000E+02</rscale>
<asrwt>0</asrwt>
<pdfrwt beam="1">  1        2 0.29413886E-02 0.91188000E+02</pdfrwt>
<pdfrwt beam="2">  1       -2 0.16727702E-01 0.91188000E+02</pdfrwt>
<totfact> 0.77780539E+04</totfact>
</mgrwt>
</event>
<event>
 3      1 +4.2044000e+04 9.11880000e+01 7.54677100e-03 1.30000000e-01
       -2 -1    0    0    0  501 -0.0000000000e+00 +0.0000000000e+00 +2.1437032168e+01 2.1437032168e+01 0.0000000000e+00 0.0000e+00 1.0000e+00
        2 -1    0    0  501    0 +0.0000000000e+00 -0.0000000000e+00 -9.6972977404e+01 9.6972977404e+01 0.0000000000e+00 0.0000e+00 -1.0000e+00
       23  1    1    2    0    0 +0.0000000000e+00 -0.0000000000e+00 -7.5535945236e+01 1.1841000957e+02 9.1188000000e+01 0.0000e+00 1.0000e+00
<mgrwt>
<rscale>  0 0.91188000E+02</rscale>
<asrwt>0</asrwt>
<pdfrwt beam="2">  1        2 0.14918919E-01 0.91188000E+02</pdfrwt>
<pdfrwt beam="1">  1       -2 0.32980050E-02 0.91188000E+02</pdfrwt>
<totfact> 0.12149715E+05</totfact>
</mgrwt>
</event>
<event>
 3      1 +4.2044000e+04 9.11880000e+01 7.54677100e-03 1.30000000e-01
        2 -1    0    0  501    0 +0.0000000000e+00 +0.0000000000e+00 +8.0818572795e+02 8.0818572795e+02 0.0000000000e+00 0.0000e+00 -1.0000e+00
       -2 -1    0    0    0  501 -0.0000000000e+00 -0.0000000000e+00 -2.5721969148e+00 2.5721969148e+00 0.0000000000e+00 0.0000e+00 1.0000e+00
       23  1    1    2    0    0 +0.0000000000e+00 +0.0000000000e+00 +8.0561353103e+02 8.1075792486e+02 9.1188000000e+01 0.0000e+00 -1.0000e+00
<mgrwt>
<rscale>  0 0.91188000E+02</rscale>
<asrwt>0</asrwt>
<pdfrwt beam="1">  1        2 0.12433606E+00 0.91188000E+02</pdfrwt>
<pdfrwt beam="2">  1       -2 0.39572325E-03 0.91188000E+02</pdfrwt>
<totfact> 0.24409080E+05</totfact>
</mgrwt>
</event>
<event>
 3      1 +4.2044000e+04 9.11880000e+01 7.54677100e-03 1.30000000e-01
        3 -1    0    0  501    0 +0.0000000000e+00 +0.0000000000e+00 +1.8955049861e+02 1.8955049861e+02 0.0000000000e+00 0.0000e+00 -1.0000e+00
       -3 -1    0    0    0  501 -0.0000000000e+00 -0.0000000000e+00 -1.0967066039e+01 1.0967066039e+01 0.0000000000e+00 0.0000e+00 1.0000e+00
       23  1    1    2    0    0 +0.0000000000e+00 +0.0000000000e+00 +1.7858343257e+02 2.0051756465e+02 9.1188000000e+01 0.0000e+00 -1.0000e+00
<mgrwt>
<rscale>  0 0.91188000E+02</rscale>
<asrwt>0</asrwt>
<pdfrwt beam="1">  1        3 0.29161613E-01 0.91188000E+02</pdfrwt>
<pdfrwt beam="2">  1       -3 0.16872411E-02 0.91188000E+02</pdfrwt>
<totfact> 0.28462393E+04</totfact>
</mgrwt>
</event>
<event>
 3      1 +4.2044000e+04 9.11880000e+01 7.54677100e-03 1.30000000e-01
       -1 -1    0    0    0  501 -0.0000000000e+00 +0.0000000000e+00 +8.4753654613e+00 8.4753654613e+00 0.0000000000e+00 0.0000e+00 1.0000e+00
        1 -1    0    0  501    0 +0.0000000000e+00 -0.0000000000e+00 -2.4527707336e+02 2.4527707336e+02 0.0000000000e+00 0.0000e+00 -1.0000e+00
       23  1    1    2    0    0 +0.0000000000e+00 -0.0000000000e+00 -2.3680170790e+02 2.5375243882e+02 9.1188000000e+01 0.0000e+00 1.0000e+00
<mgrwt>
<rscale>  0 0.91188000E+02</rscale>
<asrwt>0</asrwt>
<pdfrwt beam="2">  1        1 0.37734924E-01 0.91188000E+02</pdfrwt>
<pdfrwt beam="1">  1       -1 0.13039027E-02 0.91188000E+02</pdfrwt>
<totfact> 0.12317098E+05</totfact>
</mgrwt>
</event>
<event>
 3      1 +4.2044000e+04 9.11880000e+01 7.54677100e-03 1.30000000e-01
        1 -1    0    0  501    0 +0.0000000000e+00 +0.0000000000e+00 +2.0245415421e+02 2.0245415421e+02 0.0000000000e+00 0.0000e+00 1.0000e+00
       -1 -1    0    0    0  501 -0.0000000000e+00 -0.0000000000e+00 -1.0268067080e+01 1.0268067080e+01 0.0000000000e+00 0.0000e+00 -1.0000e+00
       23  1    1    2    0    0 +0.0000000000e+00 +0.0000000000e+00 +1.9218608713e+02 2.1272222129e+02 9.1188000000e+01 0.0000e+00 1.0000e+00
<mgrwt>
<rscale>  0 0.91188000E+02</rscale>
<asrwt>0</asrwt>
<pdfrwt beam="1">  1        1 0.31146790E-01 0.91188000E+02</pdfrwt>
<pdfrwt beam="2">  1       -1 0.15797028E-02 0.91188000E+02</pdfrwt>
<totfact> 0.11864760E+05</totfact>
</mgrwt>
</event>
<event>
 3      1 +4.2044000e+04 9.11880000e+01 7.54677100e-03 1.30000000e-01
       -1 -1    0    0    0  501 -0.0000000000e+00 +0.0000000000e+00 +5.7031944364e+00 5.7031944364e+00 0.0000000000e+00 0.0000e+00 1.0000e+00
        1 -1    0    0  501    0 +0.0000000000e+00 -0.0000000000e+00 -3.6449973066e+02 3.6449973066e+02 0.0000000000e+00 0.0000e+00 -1.0000e+00
       23  1    1    2    0    0 +0.0000000000e+00 -0.0000000000e+00 -3.5879653623e+02 3.7020292510e+02 9.1188000000e+01 0.0000e+00 1.0000e+00
<mgrwt>
<rscale>  0 0.91188000E+02</rscale>
<asrwt>0</asrwt>
<pdfrwt beam="2">  1        1 0.56076892E-01 0.91188000E+02</pdfrwt>
<pdfrwt beam="1">  1       -1 0.87741436E-03 0.91188000E+02</pdfrwt>
<totfact> 0.13273685E+05</totfact>
</mgrwt>
</event>
<event>
 3      1 +4.2044000e+04 9.11880000e+01 7.54677100e-03 1.30000000e-01
        2 -1    0    0  501    0 +0.0000000000e+00 +0.0000000000e+00 +3.4248363425e+02 3.4248363425e+02 0.0000000000e+00 0.0000e+00 -1.0000e+00
       -2 -1    0    0    0  501 -0.0000000000e+00 -0.0000000000e+00 -6.0698165638e+00 6.0698165638e+00 0.0000000000e+00 0.0000e+00 1.0000e+00
       23  1    1    2    0    0 +0.0000000000e+00 +0.0000000000e+00 +3.3641381768e+02 3.4855345081e+02 9.1188000000e+01 0.0000e+00 -1.0000e+00
<mgrwt>
<rscale>  0 0.91188000E+02</rscale>
<asrwt>0</asrwt>
<pdfrwt beam="1">  1        2 0.52689775E-01 0.91188000E+02</pdfrwt>
<pdfrwt beam="2">  1       -2 0.93381820E-03 0.91188000E+02</pdfrwt>
<totfact> 0.18862752E+05</totfact>
</mgrwt>
</event>
<event>
 3      1 +4.2044000e+04 9.11880000e+01 7.54677100e-03 1.30000000e-01
       -1 -1    0    0    0  501 -0.0000000000e+00 +0.0000000000e+00 +8.6862890492e+00 8.6862890492e+00 0.0000000000e+00 0.0000e+00 1.0000e+00
        1 -1    0    0  501    0 +0.0000000000e+00 -0.0000000000e+00 -2.3932116744e+02 2.3932116744e+02 0.0000000000e+00 0.0000e+00 -1.0000e+00
       23  1    1    2    0    0 +0.0000000000e+00 -0.0000000000e+00 -2.3063487839e+02 2.4800745649e+02 9.1188000000e+01 0.0000e+00 1.0000e+00
<mgrwt>
<rscale>  0 0.91188000E+02</rscale>
<asrwt>0</asrwt>
<pdfrwt beam="2">  1        1 0.36818647E-01 0.91188000E+02</pdfrwt>
<pdfrwt beam="1">  1       -1 0.13363519E-02 0.91188000E+02</pdfrwt>
<totfact> 0.12258192E+05</totfact>
</mgrwt>
</event>
<event>
 3      1 +4.2044000e+04 9.11880000e+01 7.54677100e-03 1.30000000e-01
       -3 -1    0    0    0  501 -0.0000000000e+00 +0.0000000000e+00 +8.9616602190e+00 8.9616602190e+00 0.0000000000e+00 0.0000e+00 1.0000e+00
        3 -1    0    0  501    0 +0.0000000000e+00 -0.0000000000e+00 -2.3196737939e+02 2.3196737939e+02 0.0000000000e+00 0.0000e+00 -1.0000e+00
       23  1    1    2    0    0 +0.0000000000e+00 -0.0000000000e+00 -2.2300571917e+02 2.4092903961e+02 9.1188000000e+01 0.0000e+00 1.0000e+00
<mgrwt>
<rscale>  0 0.91188000E+02</rscale>
<asrwt>0</asrwt>
<pdfrwt beam="2">  1        3 0.35687281E-01 0.91188000E+02</pdfrwt>
<pdfrwt beam="1">  1       -3 0.13787173E-02 0.91188000E+02</pdfrwt>
<totfact> 0.26503334E+04</totfact>
</mgrwt>
</event>
<event>
 3      1 +4.2044000e+04 9.11880000e+01 7.54677100e-03 1.30000000e-01
       -1 -1    0    0    0  501 -0.0000000000e+00 +0.0000000000e+00 +2.5942973984e+01 2.5942973984e+01 0.0000000000e+00 0.0000e+00 1.0000e+00
        1 -1    0    0  501    0 +0.0000000000e+00 -0.0000000000e+00 -8.0130089838e+01 8.0130089838e+01 0.0000000000e+00 0.0000e+00 -1.0000e+00
       23  1    1    2    0    0 +0.0000000000e+00 -0.0000000000e+00 -5.4187115854e+01 1.0607306382e+02 9.1188000000e+01 0.0000e+00 1.0000e+00
<mgrwt>
<rscale>  0 0.91188000E+02</rscale>
<asrwt>0</asrwt>
<pdfrwt beam="2">  1        1 0.12327706E-01 0.91188000E+02</pdfrwt>
<pdfrwt beam="1">  1       -1 0.39912268E-02 0.91188000E+02</pdfrwt>
<totfact> 0.10073613E+05</totfact>
</mgrwt>
</event>
<event>
 3      1 +4.2044000e+04 9.11880000e+01 7.54677100e-03 1.30000000e-01
       -1 -1    0    0    0  501 -0.0000000000e+00 +0.0000000000e+00 +2.1254684154e+01 2.1254684154e+01 0.0000000000e+00 0.0000e+00 1.0000e+00
        1 -1    0    0  501    0 +0.0000000000e+00 -0.0000000000e+00 -9.7804927182e+01 9.7804927182e+01 0.0000000000e+00 0.0000e+00 -1.0000e+00
       23  1    1    2    0    0 +0.0000000000e+00 -0.0000000000e+00 -7.6550243028e+01 1.1905961134e+02 9.1188000000e+01 0.0000e+00 1.0000e+00
<mgrwt>
<rscale>  0 0.91188000E+02</rscale>
<asrwt>0</asrwt>
<pdfrwt beam="2">  1        1 0.15046912E-01 0.91188000E+02</pdfrwt>
<pdfrwt beam="1">  1       -1 0.32699514E-02 0.91188000E+02</pdfrwt>
<totfact> 0.10403325E+05</totfact>
</mgrwt>
</event>
<event>
 3      1 +4.2044000e+04 9.11880000e+01 7.54677100e-03 1.30000000e-01
        1 -1    0    0  501    0 +0.0000000000e+00 +0.0000000000e+00 +1.0433598331e+03 1.0433598331e+03 0.0000000000e+00 0.0000e+00 -1.0000e+00
       -1 -1    0    0    0  501 -0.0000000000e+00 -0.0000000000e+00 -1.9924217610e+00 1.9924217610e+00 0.0000000000e+00 0.0000e+00 1.0000e+00
       23  1    1    2    0    0 +0.0000000000e+00 +0.0000000000e+00 +1.0413674113e+03 1.0453522548e+03 9.1188000000e+01 0.0000e+00 -1.0000e+00
<mgrwt>
<rscale>  0 0.91188000E+02</rscale>
<asrwt>0</asrwt>
<pdfrwt beam="1">  1        1 0.16051646E+00 0.91188000E+02</pdfrwt>
<pdfrwt beam="2">  1       -1 0.30652726E-03 0.91188000E+02</pdfrwt>
<totfact> 0.13432570E+05</totfact>
</mgrwt>
</event>
<event>
 3      1 +4.2044000e+04 9.11880000e+01 7.54677100e-03 1.30000000e-01
        2 -1    0    0  501    0 +0.0000000000e+00 +0.0000000000e+00 +2.7958953706e+03 2.7958953706e+03 0.0000000000e+00 0.0000e+00 -1.0000e+00
       -2 -1    0    0    0  501 -0.0000000000e+00 -0.0000000000e+00 -7.4352311530e-01 7.4352311530e-01 0.0000000000e+00 0.0000e+00 1.0000e+00
       23  1    1    2    0    0 +0.0000000000e+00 +0.0000000000e+00 +2.7951518475e+03 2.7966388937e+03 9.1188000000e+01 0.0000e+00 -1.0000e+00
<mgrwt>
<rscale>  0 0.91188000E+02</rscale>
<asrwt>0</asrwt>
<pdfrwt beam="1">  1        2 0.43012933E+00 0.91188000E+02</pdfrwt>
<pdfrwt beam="2">  1       -2 0.11439041E-03 0.91188000E+02</pdfrwt>
<totfact> 0.12023148E+05</totfact>
</mgrwt>
</event>
<event>
 3      1 +4.2044000e+04 9.11880000e+01 7.54677100e-03 1.30000000e-01
        1 -1    0    0  501    0 +0.0000000000e+00 +0.0000000000e+00 +1.5822019579e+01 1.5822019579e+01 0.0000000000e+00 0.0000e+00 -1.0000e+00
       -1 -1    0    0    0  501 -0.0000000000e+00 -0.0000000000e+00 -1.3138732547e+02 1.3138732547e+02 0.0000000000e+00 0.0000e+00 1.0000e+00
       23  1    1    2    0    0 +0.0000000000e+00 +0.0000000000e+00 -1.1556530589e+02 1.4720934505e+02 9.1188000000e+01 0.0000e+00 -1.0000e+00
<mgrwt>
<rscale>  0 0.91188000E+02</rscale>
<asrwt>0</asrwt>
<pdfrwt beam="1">  1        1 0.24341568E-02 0.91188000E+02</pdfrwt>
<pdfrwt beam="2">  1       -1 0.20213435E-01 0.91188000E+02</pdfrwt>
<totfact> 0.77024209E+04</totfact>
</mgrwt>
</event>
<event>
 3      1 +4.2044000e+04 9.11880000e+01 7.54677100e-03 1.30000000e-01
       -1 -1    0    0    0  501 -0.0000000000e+00 +0.0000000000e+00 +5.3078609708e+01 5.3078609708e+01 0.0000000000e+00 0.0000e+00 1.0000e+00
        1 -1    0    0  501    0 +0.0000000000e+00 -0.0000000000e+00 -3.9164794395e+01 3.9164794395e+01 0.0000000000e+00 0.0000e+00 -1.0000e+00
       23  1    1    2    0    0 +0.0000000000e+00 -0.0000000000e+00 +1.3913815312e+01 9.2243404103e+01 9.1188000000e+01 0.0000e+00 1.0000e+00
<mgrwt>
<rscale>  0 0.91188000E+02</rscale>
<asrwt>0</asrwt>
<pdfrwt beam="2">  1        1 0.60253530E-02 0.91188000E+02</pdfrwt>
<pdfrwt beam="1">  1       -1 0.81659400E-02 0.91188000E+02</pdfrwt>
<totfact> 0.90341699E+04</totfact>
</mgrwt>
</event>
<event>
 3      1 +4.2044000e+04 9.11880000e+01 7.54677100e-03 1.30000000e-01
       -2 -1    0    0    0  501 -0.0000000000e+00 +0.0000000000e+00 +2.4681065041e+01 2.4681065041e+01 0.0000000000e+00 0.0000e+00 -1.0000e+00
        2 -1    0    0  501    0 +0.0000000000e+00 -0.0000000000e+00 -8.4227031231e+01 8.4227031231e+01 0.0000000000e+00 0.0000e+00 1.0000e+00
       23  1    1    2    0    0 +0.0000000000e+00 -0.0000000000e+00 -5.9545966191e+01 1.0890809627e+02 9.1188000000e+01 0.0000e+00 -1.0000e+00
<mgrwt>
<rscale>  0 0.91188000E+02</rscale>
<asrwt>0</asrwt>
<pdfrwt beam="2">  1        2 0.12958005E-01 0.91188000E+02</pdfrwt>
<pdfrwt beam="1">  1       -2 0.37970869E-02 0.91188000E+02</pdfrwt>
<totfact> 0.11653211E+05</totfact>
</mgrwt>
</event>
<event>
 3      1 +4.2044000e+04 9.11880000e+01 7.54677100e-03 1.30000000e-01
       -2 -1    0    0    0  501 -0.0000000000e+00 +0.0000000000e+00 +7.3994296297e-01 7.3994296297e-01 0.0000000000e+00 0.0000e+00 1.0000e+00
        2 -1    0    0  501    0 +0.0000000000e+00 -0.0000000000e+00 -2.8094230772e+03 2.8094230772e+03 0.0000000000e+00 0.0000e+00 -1.0000e+00
       23  1    1    2    0    0 +0.0000000000e+00 -0.0000000000e+00 -2.8086831343e+03 2.8101630202e+03 9.1188000000e+01 0.0000e+00 1.0000e+00
<mgrwt>
<rscale>  0 0.91188000E+02</rscale>
<asrwt>0</asrwt>
<pdfrwt beam="2">  1        2 0.43221712E+00 0.91188000E+02</pdfrwt>
<pdfrwt beam="1">  1       -2 0.11383786E-03 0.91188000E+02</pdfrwt>
<totfact> 0.11897614E+05</totfact>
</mgrwt>
</event>
<event>
 3      1 +4.2044000e+04 9.11880000e+01 7.54677100e-03 1.30000000e-01
       -1 -1    0    0    0  501 -0.0000000000e+00 +0.0000000000e+00 +2.5891860271e+00 2.5891860271e+00 0.0000000000e+00 0.0000e+00 1.0000e+00
        1 -1    0    0  501    0 +0.0000000000e+00 -0.0000000000e+00 -8.0288276479e+02 8.0288276479e+02 0.0000000000e+00 0.0000e+00 -1.0000e+00
       23  1    1    2    0    0 +0.0000000000e+00 -0.0000000000e+00 -8.0029357876e+02 8.0547195082e+02 9.1188000000e+01 0.0000e+00 1.0000e+00
<mgrwt>
<rscale>  0 0.91188000E+02</rscale>
<asrwt>0</asrwt>
<pdfrwt beam="2">  1        1 0.12352063E+00 0.91188000E+02</pdfrwt>
<pdfrwt beam="1">  1       -1 0.39833566E-03 0.91188000E+02</pdfrwt>
<totfact> 0.14120799E+05</totfact>
</mgrwt>
</event>
<event>
 3      1 +4.2044000e+04 9.11880000e+01 7.54677100e-03 1.30000000e-01
       -2 -1    0    0    0  501 -0.0000000000e+00 +0.0000000000e+00 +2.0660552656e+00 2.0660552656e+00 0.0000000000e+00 0.0000e+00 -1.0000e+00
        2 -1    0    0  501    0 +0.0000000000e+00 -0.0000000000e+00 -1.0061748447e+03 1.0061748447e+03 0.0000000000e+00 0.0000e+00 1.0000e+00
       23  1    1    2    0    0 +0.0000000000e+00 -0.0000000000e+00 -1.0041087895e+03 1.0082409000e+03 9.1188000000e+01 0.0000e+00 -1.0000e+00
<mgrwt>
<rscale>  0 0.91188000E+02</rscale>
<asrwt>0</asrwt>
<pdfrwt beam="2">  1        2 0.15479616E+00 0.91188000E+02</pdfrwt>
<pdfrwt beam="1">  1       -2 0.31785460E-03 0.91188000E+02</pdfrwt>
<totfact> 0.24999683E+05</totfact>
</mgrwt>
</event>
<event>
 3      1 +4.2044000e+04 9.11880000e+01 7.54677100e-03 1.30000000e-01
        1 -1    0    0  501    0 +0.0000000000e+00 +0.0000000000e+00 +5.1667475545e+01 5.1667475545e+01 0.0000000000e+00 0.0000e+00 -1.0000e+00
       -1 -1    0    0    0  501 -0.0000000000e+00 -0.0000000000e+00 -4.0234457249e+01 4.0234457249e+01 0.0000000000e+00 0.0000e+00 1.0000e+00
       23  1    1    2    0    0 +0.0000000000e+00 +0.0000000000e+00 +1.1433018296e+01 9.1901932794e+01 9.1188000000e+01 0.0000e+00 -1.0000e+00
<mgrwt>
<rscale>  0 0.91188000E+02</rscale>
<asrwt>0</asrwt>
<pdfrwt beam="1">  1        1 0.79488424E-02 0.91188000E+02</pdfrwt>
<pdfrwt beam="2">  1       -1 0.61899165E-02 0.91188000E+02</pdfrwt>
<totfact> 0.94194554E+04</totfact>
</mgrwt>
</event>
<event>
 3      1 +4.2044000e+04 9.11880000e+01 7.54677100e-03 1.30000000e-01
        1 -1    0    0  501    0 +0.0000000000e+00 +0.0000000000e+00 +1.0673400853e+02 1.0673400853e+02 0.0000000000e+00 0.0000e+00 -1.0000e+00
       -1 -1    0    0    0  501 -0.0000000000e+00 -0.0000000000e+00 -1.9476574193e+01 1.9476574193e+01 0.0000000000e+00 0.0000e+00 1.0000e+00
       23  1    1    2    0    0 +0.0000000000e+00 +0.0000000000e+00 +8.7257434333e+01 1.2621058272e+02 9.1188000000e+01 0.0000e+00 -1.0000e+00
<mgrwt>
<rscale>  0 0.91188000E+02</rscale>
<asrwt>0</asrwt>
<pdfrwt beam="1">  1        1 0.16420616E-01 0.91188000E+02</pdfrwt>
<pdfrwt beam="2">  1       -1 0.29963961E-02 0.91188000E+02</pdfrwt>
<totfact> 0.10556358E+05</totfact>
</mgrwt>
</event>
<event>
 3      1 +4.2044000e+04 9.11880000e+01 7.54677100e-03 1.30000000e-01
        1 -1    0    0  501    0 +0.0000000000e+00 +0.0000000000e+00 +1.4697290932e+02 1.4697290932e+02 0.0000000000e+00 0.0000e+00 -1.0000e+00
       -1 -1    0    0    0  501 -0.0000000000e+00 -0.0000000000e+00 -1.4144190556e+01 1.4144190556e+01 0.0000000000e+00 0.0000e+00 1.0000e+00
       23  1    1    2    0    0 +0.0000000000e+00 +0.0000000000e+00 +1.3282871876e+02 1.6111709988e+02 9.1188000000e+01 0.0000e+00 -1.0000e+00
<mgrwt>
<rscale>  0 0.91188000E+02</rscale>
<asrwt>0</asrwt>
<pdfrwt beam="1">  1        1 0.22611216E-01 0.91188000E+02</pdfrwt>
<pdfrwt beam="2">  1       -1 0.21760294E-02 0.91188000E+02</pdfrwt>
<totfact> 0.11167720E+05</totfact>
</mgrwt>
</event>
<event>
 3      1 +4.2044000e+04 9.11880000e+01 7.54677100e-03 1.30000000e-01
       -2 -1    0    0    0  501 -0.0000000000e+00 +0.0000000000e+00 +4.1845810600e+01 4.1845810600e+01 0.0000000000e+00 0.0000e+00 1.0000e+00
        2 -1    0    0  501    0 +0.0000000000e+00 -0.0000000000e+00 -4.9677920112e+01 4.9677920112e+01 0.0000000000e+00 0.0000e+00 -1.0000e+00
       23  1    1    2    0    0 +0.0000000000e+00 -0.0000000000e+00 -7.8321095118e+00 9.1523730712e+01 9.1188000000e+01 0.0000e+00 1.0000e+00
<mgrwt>
<rscale>  0 0.91188000E+02</rscale>
<asrwt>0</asrwt>
<pdfrwt beam="2">  1        2 0.76427569E-02 0.91188000E+02</pdfrwt>
<pdfrwt beam="1">  1       -2 0.64378170E-02 0.91188000E+02</pdfrwt>
<totfact> 0.10087126E+05</totfact>
</mgrwt>
</event>
<event>
 3      1 +4.2044000e+04 9.11880000e+01 7.54677100e-03 1.30000000e-01
       -1 -1    0    0    0  501 -0.0000000000e+00 +0.0000000000e+00 +1.9672985885e+00 1.9672985885e+00 0.0000000000e+00 0.0000e+00 1.0000e+00
        1 -1    0    0  501    0 +0.0000000000e+00 -0.0000000000e+00 -1.0566839463e+03 1.0566839463e+03 0.0000000000e+00 0.0000e+00 -1.0000e+00
       23  1    1    2    0    0 +0.0000000000e+00 -0.0000000000e+00 -1.0547166477e+03 1.0586512449e+03 9.1188000000e+01 0.0000e+00 1.0000e+00
<mgrwt>
<rscale>  0 0.91188000E+02</rscale>
<asrwt>0</asrwt>
<pdfrwt beam="2">  1        1 0.16256656E+00 0.91188000E+02</pdfrwt>
<pdfrwt beam="1">  1       -1 0.30266170E-03 0.91188000E+02</pdfrwt>
<totfact> 0.13378993E+05</totfact>
</mgrwt>
</event>
<event>
 3      1 +4.2044000e+04 9.11880000e+01 7.54677100e-03 1.30000000e-01
        2 -1    0    0  501    0 +0.0000000000e+00 +0.0000000000e+00 +2.6135846637e+03 2.6135846637e+03 0.0000000000e+00 0.0000e+00 -1.0000e+00
       -2 -1    0    0    0  501 -0.0000000000e+00 -0.0000000000e+00 -7.9538760113e-01 7.9538760113e-01 0.0000000000e+00 0.0000e+00 1.0000e+00
       23  1    1    2    0    0 +0.0000000000e+00 +0.0000000000e+00 +2.6127892761e+03 2.6143800513e+03 9.1188000000e+01 0.0000e+00 -1.0000e+00
<mgrwt>
<rscale>  0 0.91188000E+02</rscale>
<asrwt>0</asrwt>
<pdfrwt beam="1">  1        2 0.40208307E+00 0.91188000E+02</pdfrwt>
<pdfrwt beam="2">  1       -2 0.12236942E-03 0.91188000E+02</pdfrwt>
<totfact> 0.13748307E+05</totfact>
</mgrwt>
</event>
<event>
 3      1 +4.2044000e+04 9.11880000e+01 7.54677100e-03 1.30000000e-01
        3 -1    0    0  501    0 +0.0000000000e+00 +0.0000000000e+00 +1.8096511314e+01 1.8096511314e+01 0.0000000000e+00 0.0000e+00 -1.0000e+00
       -3 -1    0    0    0  501 -0.0000000000e+00 -0.0000000000e+00 -1.1487367924e+02 1.1487367924e+02 0.0000000000e+00 0.0000e+00 1.0000e+00
       23  1    1    2    0    0 +0.0000000000e+00 +0.0000000000e+00 -9.6777167923e+01 1.3297019055e+02 9.1188000000e+01 0.0000e+00 -1.0000e+00
<mgrwt>
<rscale>  0 0.91188000E+02</rscale>
<asrwt>0</asrwt>
<pdfrwt beam="1">  1        3 0.27840786E-02 0.91188000E+02</pdfrwt>
<pdfrwt beam="2">  1       -3 0.17672874E-01 0.91188000E+02</pdfrwt>
<totfact> 0.32372329E+04</totfact>
</mgrwt>
</event>
<event>
 3      1 +4.2044000e+04 9.11880000e+01 7.54677100e-03 1.30000000e-01
        2 -1    0    0  501    0 +0.0000000000e+00 +0.0000000000e+00 +9.8548629045e+02 9.8548629045e+02 0.0000000000e+00 0.0000e+00 1.0000e+00
       -2 -1    0    0    0  501 -0.0000000000e+00 -0.0000000000e+00 -2.1094284681e+00 2.1094284681e+00 0.0000000000e+00 0.0000e+00 -1.0000e+00
       23  1    1    2    0    0 +0.0000000000e+00 +0.0000000000e+00 +9.8337686198e+02 9.8759571892e+02 9.1188000000e+01 0.0000e+00 1.0000e+00
<mgrwt>
<rscale>  0 0.91188000E+02</rscale>
<asrwt>0</asrwt>
<pdfrwt beam="1">  1        2 0.15161291E+00 0.91188000E+02</pdfrwt>
<pdfrwt beam="2">  1       -2 0.32452824E-03 0.91188000E+02</pdfrwt>
<totfact> 0.24975553E+05</totfact>
</mgrwt>
</event>
<event>
 3      1 +4.2044000e+04 9.11880000e+01 7.54677100e-03 1.30000000e-01
        1 -1    0    0  501    0 +0.0000000000e+00 +0.0000000000e+00 +2.0094361202e+03 2.0094361202e+03 0.0000000000e+00 0.0000e+00 -1.0000e+00
       -1 -1    0    0    0  501 -0.0000000000e+00 -0.0000000000e+00 -1.0345254647e+00 1.0345254647e+00 0.0000000000e+00 0.0000e+00 1.0000e+00
       23  1    1    2    0    0 +0.0000000000e+00 +0.0000000000e+00 +2.0084015948e+03 2.0104706457e+03 9.1188000000e+01 0.0000e+00 -1.0000e+00
<mgrwt>
<rscale>  0 0.91188000E+02</rscale>
<asrwt>0</asrwt>
<pdfrwt beam="1">  1        1 0.30914089E+00 0.91188000E+02</pdfrwt>
<pdfrwt beam="2">  1       -1 0.15915937E-03 0.91188000E+02</pdfrwt>
<totfact> 0.79146254E+04</totfact>
</mgrwt>
</event>
<event>
 3      1 +4.2044000e+04 9.11880000e+01 7.54677100e-03 1.30000000e-01
        1 -1    0    0  501    0 +0.0000000000e+00 +0.0000000000e+00 +2.1825983374e+01 2.1825983374e+01 0.0000000000e+00 0.0000e+00 -1.0000e+00
       -1 -1    0    0    0  501 -0.0000000000e+00 -0.0000000000e+00 -9.5244864821e+01 9.5244864821e+01 0.0000000000e+00 0.0000e+00 1.0000e+00
       23  1    1    2    0    0 +0.0000000000e+00 +0.0000000000e+00 -7.3418881448e+01 1.1707084819e+02 9.1188000000e+01 0.0000e+00 -1.0000e+00
<mgrwt>
<rscale>  0 0.91188000E+02</rscale>
<asrwt>0</asrwt>
<pdfrwt beam="1">  1        1 0.33578436E-02 0.91188000E+02</pdfrwt>
<pdfrwt beam="2">  1       -1 0.14653056E-01 0.91188000E+02</pdfrwt>
<totfact> 0.82076914E+04</totfact>
</mgrwt>
</event>
<event>
 3      1 +4.2044000e+04 9.11880000e+01 7.54677100e-03 1.30000000e-01
        3 -1    0    0  501    0 +0.0000000000e+00 +0.0000000000e+00 +6.5014524608e+02 6.5014524608e+02 0.0000000000e+00 0.0000e+00 -1.0000e+00
       -3 -1    0    0    0  501 -0.0000000000e+00 -0.0000000000e+00 -3.1974591040e+00 3.1974591040e+00 0.0000000000e+00 0.0000e+00 1.0000e+00
       23  1    1    2    0    0 +0.0000000000e+00 +0.0000000000e+00 +6.4694778698e+02 6.5334270518e+02 9.1188000000e+01 0.0000e+00 -1.0000e+00
<mgrwt>
<rscale>  0 0.91188000E+02</rscale>
<asrwt>0</asrwt>
<pdfrwt beam="1">  1        3 0.10002224E+00 0.91188000E+02</pdfrwt>
<pdfrwt beam="2">  1       -3 0.49191730E-03 0.91188000E+02</pdfrwt>
<totfact> 0.14720289E+04</totfact>
</mgrwt>
</event>
<event>
 3      1 +4.2044000e+04 9.11880000e+01 7.54677100e-03 1.30000000e-01
        2 -1    0    0  501    0 +0.0000000000e+00 +0.0000000000e+00 +8.2756821745e+01 8.2756821745e+01 0.0000000000e+00 0.0000e+00 1.0000e+00
       -2 -1    0    0    0  501 -0.0000000000e+00 -0.0000000000e+00 -2.5119534465e+01 2.5119534465e+01 0.0000000000e+00 0.0000e+00 -1.0000e+00
       23  1    1    2    0    0 +0.0000000000e+00 +0.0000000000e+00 +5.7637287280e+01 1.0787635621e+02 9.1188000000e+01 0.0000e+00 1.0000e+00
<mgrwt>
<rscale>  0 0.91188000E+02</rscale>
<asrwt>0</asrwt>
<pdfrwt beam="1">  1        2 0.12731819E-01 0.91188000E+02</pdfrwt>
<pdfrwt beam="2">  1       -2 0.38645438E-02 0.91188000E+02</pdfrwt>
<totfact> 0.11593978E+05</totfact>
</mgrwt>
</event>
<event>
 3      1 +4.2044000e+04 9.11880000e+01 7.54677100e-03 1.30000000e-01
       -1 -1    0    0    0  501 -0.0000000000e+00 +0.0000000000e+00 +8.1246829023e+00 8.1246829023e+00 0.0000000000e+00 0.0000e+00 1.0000e+00
        1 -1    0    0  501    0 +0.0000000000e+00 -0.0000000000e+00 -2.5586387321e+02 2.5586387321e+02 0.0000000000e+00 0.0000e+00 -1.0000e+00
       23  1    1    2    0    0 +0.0000000000e+00 -0.0000000000e+00 -2.4773919031e+02 2.6398855611e+02 9.1188000000e+01 0.0000e+00 1.0000e+00
<mgrwt>
<rscale>  0 0.91188000E+02</rscale>
<asrwt>0</asrwt>
<pdfrwt beam="2">  1        1 0.39363663E-01 0.91188000E+02</pdfrwt>
<pdfrwt beam="1">  1       -1 0.12499515E-02 0.91188000E+02</pdfrwt>
<totfact> 0.12418849E+05</totfact>
</mgrwt>
</event>
<event>
 3      1 +4.2044000e+04 9.11880000e+01 7.54677100e-03 1.30000000e-01
       -1 -1    0    0    0  501 -0.0000000000e+00 +0.0000000000e+00 +7.1365894205e-01 7.1365894205e-01 0.0000000000e+00 0.0000e+00 -1.0000e+00
        1 -1    0    0  501    0 +0.0000000000e+00 -0.0000000000e+00 -2.9128939799e+03 2.9128939799e+03 0.0000000000e+00 0.0000e+00 1.0000e+00
       23  1    1    2    0    0 +0.0000000000e+00 -0.0000000000e+00 -2.9121803210e+03 2.9136076388e+03 9.1188000000e+01 0.0000e+00 -1.0000e+00
<mgrwt>
<rscale>  0 0.91188000E+02</rscale>
<asrwt>0</asrwt>
<pdfrwt beam="2">  1        1 0.44814647E+00 0.91188000E+02</pdfrwt>
<pdfrwt beam="1">  1       -1 0.10979150E-03 0.91188000E+02</pdfrwt>
<totfact> 0.34559347E+04</totfact>
</mgrwt>
</event>
<event>
 3      1 +4.2044000e+04 9.11880000e+01 7.54677100e-03 1.30000000e-01
       -2 -1    0    0    0  501 -0.0000000000e+00 +0.0000000000e+00 +1.9420815249e+00 1.9420815249e+00 0.0000000000e+00 0.0000e+00 -1.0000e+00
        2 -1    0    0  501    0 +0.0000000000e+00 -0.0000000000e+00 -1.0704045167e+03 1.0704045167e+03 0.0000000000e+00 0.0000e+00 1.0000e+00
       23  1    1    2    0    0 +0.0000000000e+00 -0.0000000000e+00 -1.0684624352e+03 1.0723465982e+03 9.1188000000e+01 0.0000e+00 -1.0000e+00
<mgrwt>
<rscale>  0 0.91188000E+02</rscale>
<asrwt>0</asrwt>
<pdfrwt beam="2">  1        2 0.16467798E+00 0.91188000E+02</pdfrwt>
<pdfrwt beam="1">  1       -2 0.29878112E-03 0.91188000E+02</pdfrwt>
<totfact> 0.25024180E+05</totfact>
</mgrwt>
</event>
<event>
 3      1 +4.2044000e+04 9.11880000e+01 7.54677100e-03 1.30000000e-01
       -1 -1    0    0    0  501 -0.0000000000e+00 +0.0000000000e+00 +1.9059354836e+01 1.9059354836e+01 0.0000000000e+00 0.0000e+00 1.0000e+00
        1 -1    0    0  501    0 +0.0000000000e+00 -0.0000000000e+00 -1.0907047242e+02 1.0907047242e+02 0.0000000000e+00 0.0000e+00 -1.0000e+00
       23  1    1    2    0    0 +0.0000000000e+00 -0.0000000000e+00 -9.0011117583e+01 1.2812982726e+02 9.1188000000e+01 0.0000e+00 1.0000e+00
<mgrwt>
<rscale>  0 0.91188000E+02</rscale>
<asrwt>0</asrwt>
<pdfrwt beam="2">  1        1 0.16780073E-01 0.91188000E+02</pdfrwt>
<pdfrwt beam="1">  1       -1 0.29322085E-02 0.91188000E+02</pdfrwt>
<totfact> 0.10595151E+05</totfact>
</mgrwt>
</event>
<event>
 3      1 +4.2044000e+04 9.11880000e+01 7.54677100e-03 1.30000000e-01
       -1 -1    0    0    0  501 -0.0000000000e+00 +0.0000000000e+00 +1.8924031581e+00 1.8924031581e+00 0.0000000000e+00 0.0000e+00 1.0000e+00
        1 -1    0    0  501    0 +0.0000000000e+00 -0.0000000000e+00 -1.0985042099e+03 1.0985042099e+03 0.0000000000e+00 0.0000e+00 -1.0000e+00
       23  1    1    2    0    0 +0.0000000000e+00 -0.0000000000e+00 -1.0966118068e+03 1.1003966131e+03 9.1188000000e+01 0.0000e+00 1.0000e+00
<mgrwt>
<rscale>  0 0.91188000E+02</rscale>
<asrwt>0</asrwt>
<pdfrwt beam="2">  1        1 0.16900038E+00 0.91188000E+02</pdfrwt>
<pdfrwt beam="1">  1       -1 0.29113940E-03 0.91188000E+02</pdfrwt>
<totfact> 0.13202359E+05</totfact>
</mgrwt>
</event>
<event>
 3      1 +4.2044000e+04 9.11880000e+01 7.54677100e-03 1.30000000e-01
        4 -1    0    0  501    0 +0.0000000000e+00 +0.0000000000e+00 +1.7849770354e+02 1.7849770354e+02 0.0000000000e+00 0.0000e+00 -1.0000e+00
       -4 -1    0    0    0  501 -0.0000000000e+00 -0.0000000000e+00 -1.1646160117e+01 1.1646160117e+01 0.0000000000e+00 0.0000e+00 1.0000e+00
       23  1    1    2    0    0 +0.0000000000e+00 +0.0000000000e+00 +1.6685154342e+02 1.9014386366e+02 9.1188000000e+01 0.0000e+00 -1.0000e+00
<mgrwt>
<rscale>  0 0.91188000E+02</rscale>
<asrwt>0</asrwt>
<pdfrwt beam="1">  1        4 0.27461183E-01 0.91188000E+02</pdfrwt>
<pdfrwt beam="2">  1       -4 0.17917171E-02 0.91188000E+02</pdfrwt>
<totfact> 0.21797929E+04</totfact>
</mgrwt>
</event>
<event>
 3      1 +4.2044000e+04 9.11880000e+01 7.54677100e-03 1.30000000e-01
        3 -1    0    0  501    0 +0.0000000000e+00 +0.0000000000e+00 +8.9172293949e+02 8.9172293949e+02 0.0000000000e+00 0.0000e+00 -1.0000e+00
       -3 -1    0    0    0  501 -0.0000000000e+00 -0.0000000000e+00 -2.3312317581e+00 2.3312317581e+00 0.0000000000e+00 0.0000e+00 1.0000e+00
       23  1    1    2    0    0 +0.0000000000e+00 +0.0000000000e+00 +8.8939170773e+02 8.9405417124e+02 9.1188000000e+01 0.0000e+00 -1.0000e+00
<mgrwt>
<rscale>  0 0.91188000E+02</rscale>
<asrwt>0</asrwt>
<pdfrwt beam="1">  1        3 0.13718787E+00 0.91188000E+02</pdfrwt>
<pdfrwt beam="2">  1       -3 0.35865175E-03 0.91188000E+02</pdfrwt>
<totfact> 0.11195551E+04</totfact>
</mgrwt>
</event>
<event>
 3      1 +4.2044000e+04 9.11880000e+01 7.54677100e-03 1.30000000e-01
       -2 -1    0    0    0  501 -0.0000000000e+00 +0.0000000000e+00 +1.4679650196e+00 1.4679650196e+00 0.0000000000e+00 0.0000e+00 1.0000e+00
        2 -1    0    0  501    0 +0.0000000000e+00 -0.0000000000e+00 -1.4161187823e+03 1.4161187823e+03 0.0000000000e+00 0.0000e+00 -1.0000e+00
       23  1    1    2    0    0 +0.0000000000e+00 -0.0000000000e+00 -1.4146508173e+03 1.4175867473e+03 9.1188000000e+01 0.0000e+00 1.0000e+00
<mgrwt>
<rscale>  0 0.91188000E+02</rscale>
<asrwt>0</asrwt>
<pdfrwt beam="2">  1        2 0.21786510E+00 0.91188000E+02</pdfrwt>
<pdfrwt beam="1">  1       -2 0.22584008E-03 0.91188000E+02</pdfrwt>
<totfact> 0.24051818E+05</totfact>
</mgrwt>
</event>
<event>
 3      1 +4.2044000e+04 9.11880000e+01 7.54677100e-03 1.30000000e-01
        1 -1    0    0  501    0 +0.0000000000e+00 +0.0000000000e+00 +1.2107865336e+02 1.2107865336e+02 0.0000000000e+00 0.0000e+00 -1.0000e+00
       -1 -1    0    0    0  501 -0.0000000000e+00 -0.0000000000e+00 -1.7169110973e+01 1.7169110973e+01 0.0000000000e+00 0.0000e+00 1.0000e+00
       23  1    1    2    0    0 +0.0000000000e+00 +0.0000000000e+00 +1.0390954239e+02 1.3824776433e+02 9.1188000000e+01 0.0000e+00 -1.0000e+00
<mgrwt>
<rscale>  0 0.91188000E+02</rscale>
<asrwt>0</asrwt>
<pdfrwt beam="1">  1        1 0.18627485E-01 0.91188000E+02</pdfrwt>
<pdfrwt beam="2">  1       -1 0.26414018E-02 0.91188000E+02</pdfrwt>
<totfact> 0.10787075E+05</totfact>
</mgrwt>
</event>
<event>
 3      1 +4.2044000e+04 9.11880000e+01 7.54677100e-03 1.30000000e-01
        1 -1    0    0  501    0 +0.0000000000e+00 +0.0000000000e+00 +2.1073804042e+02 2.1073804042e+02 0.0000000000e+00 0.0000e+00 -1.0000e+00
       -1 -1    0    0    0  501 -0.0000000000e+00 -0.0000000000e+00 -9.8644403824e+00 9.8644403824e+00 0.0000000000e+00 0.0000e+00 1.0000e+00
       23  1    1    2    0    0 +0.0000000000e+00 +0.0000000000e+00 +2.0087360003e+02 2.2060248080e+02 9.1188000000e+01 0.0000e+00 -1.0000e+00
<mgrwt>
<rscale>  0 0.91188000E+02</rscale>
<asrwt>0</asrwt>
<pdfrwt beam="1">  1        1 0.32421234E-01 0.91188000E+02</pdfrwt>
<pdfrwt beam="2">  1       -1 0.15176064E-02 0.91188000E+02</pdfrwt>
<totfact> 0.11957660E+05</totfact>
</mgrwt>
</event>
<event>
 3      1 +4.2044000e+04 9.11880000e+01 7.54677100e-03 1.30000000e-01
       -2 -1    0    0    0  501 -0.0000000000e+00 +0.0000000000e+00 +1.1833408815e+01 1.1833408815e+01 0.0000000000e+00 0.0000e+00 1.0000e+00
        2 -1    0    0  501    0 +0.0000000000e+00 -0.0000000000e+00 -1.7567320360e+02 1.7567320360e+02 0.0000000000e+00 0.0000e+00 -1.0000e+00
       23  1    1    2    0    0 +0.0000000000e+00 -0.0000000000e+00 -1.6383979478e+02 1.8750661241e+02 9.1188000000e+01 0.0000e+00 1.0000e+00
<mgrwt>
<rscale>  0 0.91188000E+02</rscale>
<asrwt>0</asrwt>
<pdfrwt beam="2">  1        2 0.27026649E-01 0.91188000E+02</pdfrwt>
<pdfrwt beam="1">  1       -2 0.18205242E-02 0.91188000E+02</pdfrwt>
<totfact> 0.14762059E+05</totfact>
</mgrwt>
</event>
<event>
 3      1 +4.2044000e+04 9.11880000e+01 7.54677100e-03 1.30000000e-01
       -2 -1    0    0    0  501 -0.0000000000e+00 +0.0000000000e+00 +4.8190343103e+00 4.8190343103e+00 0.0000000000e+00 0.0000e+00 1.0000e+00
        2 -1    0    0  501    0 +0.0000000000e+00 -0.0000000000e+00 -4.3137539643e+02 4.3137539643e+02 0.0000000000e+00 0.0000e+00 -1.0000e+00
       23  1    1    2    0    0 +0.0000000000e+00 -0.0000000000e+00 -4.2655636212e+02 4.3619443074e+02 9.1188000000e+01 0.0000e+00 1.0000e+00
<mgrwt>
<rscale>  0 0.91188000E+02</rscale>
<asrwt>0</asrwt>
<pdfrwt beam="2">  1        2 0.66365467E-01 0.91188000E+02</pdfrwt>
<pdfrwt beam="1">  1       -2 0.74138965E-03 0.91188000E+02</pdfrwt>
<totfact> 0.20495516E+05</totfact>
</mgrwt>
</event>
<event>
 3      1 +4.2044000e+04 9.11880000e+01 7.54677100e-03 1.30000000e-01
        2 -1    0    0  501    0 +0.0000000000e+00 +0.0000000000e+00 +1.1485356152e+03 1.1485356152e+03 0.0000000000e+00 0.0000e+00 1.0000e+00
       -2 -1    0    0    0  501 -0.0000000000e+00 -0.0000000000e+00 -1.8099681094e+00 1.8099681094e+00 0.0000000000e+00 0.0000e+00 -1.0000e+00
       23  1    1    2    0    0 +0.0000000000e+00 +0.0000000000e+00 +1.1467256470e+03 1.1503455833e+03 9.1188000000e+01 0.0000e+00 1.0000e+00
<mgrwt>
<rscale>  0 0.91188000E+02</rscale>
<asrwt>0</asrwt>
<pdfrwt beam="1">  1        2 0.17669720E+00 0.91188000E+02</pdfrwt>
<pdfrwt beam="2">  1       -2 0.27845755E-03 0.91188000E+02</pdfrwt>
<totfact> 0.24957605E+05</totfact>
</mgrwt>
</event>
<event>
 3      1 +4.2044000e+04 9.11880000e+01 7.54677100e-03 1.30000000e-01
        1 -1    0    0  501    0 +0.0000000000e+00 +0.0000000000e+00 +3.3212957259e+02 3.3212957259e+02 0.0000000000e+00 0.0000e+00 -1.0000e+00
       -1 -1    0    0    0  501 -0.0000000000e+00 -0.0000000000e+00 -6.2590416740e+00 6.2590416740e+00 0.0000000000e+00 0.0000e+00 1.0000e+00
       23  1    1    2    0    0 +0.0000000000e+00 +0.0000000000e+00 +3.2587053091e+02 3.3838861426e+02 9.1188000000e+01 0.0000e+00 -1.0000e+00
<mgrwt>
<rscale>  0 0.91188000E+02</rscale>
<asrwt>0</asrwt>
<pdfrwt beam="1">  1        1 0.51096844E-01 0.91188000E+02</pdfrwt>
<pdfrwt beam="2">  1       -1 0.96292975E-03 0.91188000E+02</pdfrwt>
<totfact> 0.13054474E+05</totfact>
</mgrwt>
</event>
<event>
 3      1 +4.2044000e+04 9.11880000e+01 7.54677100e-03 1.30000000e-01
        2 -1    0    0  501    0 +0.0000000000e+00 +0.0000000000e+00 +8.9257861891e+02 8.9257861891e+02 0.0000000000e+00 0.0000e+00 -1.0000e+00
       -2 -1    0    0    0  501 -0.0000000000e+00 -0.0000000000e+00 -2.3289968995e+00 2.3289968995e+00 0.0000000000e+00 0.0000e+00 1.0000e+00
       23  1    1    2    0    0 +0.0000000000e+00 +0.0000000000e+00 +8.9024962201e+02 8.9490761581e+02 9.1188000000e+01 0.0000e+00 -1.0000e+00
<mgrwt>
<rscale>  0 0.91188000E+02</rscale>
<asrwt>0</asrwt>
<pdfrwt beam="1">  1        2 0.13731951E+00 0.91188000E+02</pdfrwt>
<pdfrwt beam="2">  1       -2 0.35830793E-03 0.91188000E+02</pdfrwt>
<totfact> 0.24762603E+05</totfact>
</mgrwt>
</event>
<event>
 3      1 +4.2044000e+04 9.11880000e+01 7.54677100e-03 1.30000000e-01
        2 -1    0    0  501    0 +0.0000000000e+00 +0.0000000000e+00 +1.0076339638e+02 1.0076339638e+02 0.0000000000e+00 0.0000e+00 -1.0000e+00
       -2 -1    0    0    0  501 -0.0000000000e+00 -0.0000000000e+00 -2.0630634840e+01 2.0630634840e+01 0.0000000000e+00 0.0000e+00 1.0000e+00
       23  1    1    2    0    0 +0.0000000000e+00 +0.0000000000e+00 +8.0132761544e+01 1.2139403122e+02 9.1188000000e+01 0.0000e+00 -1.0000e+00
<mgrwt>
<rscale>  0 0.91188000E+02</rscale>
<asrwt>0</asrwt>
<pdfrwt beam="1">  1        2 0.15502061E-01 0.91188000E+02</pdfrwt>
<pdfrwt beam="2">  1       -2 0.31739439E-02 0.91188000E+02</pdfrwt>
<totfact> 0.12291945E+05</totfact>
</mgrwt>
</event>
<event>
 3      1 +4.2044000e+04 9.11880000e+01 7.54677100e-03 1.30000000e-01
       -2 -1    0    0    0  501 -0.0000000000e+00 +0.0000000000e+00 +1.5592743357e+01 1.5592743357e+01 0.0000000000e+00 0.0000e+00 -1.0000e+00
        2 -1    0    0  501    0 +0.0000000000e+00 -0.0000000000e+00 -1.3331924911e+02 1.3331924911e+02 0.0000000000e+00 0.0000e+00 1.0000e+00
       23  1    1    2    0    0 +0.0000000000e+00 -0.0000000000e+00 -1.1772650576e+02 1.4891199247e+02 9.1188000000e+01 0.0000e+00 -1.0000e+00
<mgrwt>
<rscale>  0 0.91188000E+02</rscale>
<asrwt>0</asrwt>
<pdfrwt beam="2">  1        2 0.20510654E-01 0.91188000E+02</pdfrwt>
<pdfrwt beam="1">  1       -2 0.23988835E-02 0.91188000E+02</pdfrwt>
<totfact> 0.13434658E+05</totfact>
</mgrwt>
</event>
<event>
 3      1 +4.2044000e+04 9.11880000e+01 7.54677100e-03 1.30000000e-01
        2 -1    0    0  501    0 +0.0000000000e+00 +0.0000000000e+00 +6.9480322505e+02 6.9480322505e+02 0.0000000000e+00 0.0000e+00 -1.0000e+00
       -2 -1    0    0    0  501 -0.0000000000e+00 -0.0000000000e+00 -2.9919447133e+00 2.9919447133e+00 0.0000000000e+00 0.0000e+00 1.0000e+00
       23  1    1    2    0    0 +0.0000000000e+00 +0.0000000000e+00 +6.9181128034e+02 6.9779516976e+02 9.1188000000e+01 0.0000e+00 -1.0000e+00
<mgrwt>
<rscale>  0 0.91188000E+02</rscale>
<asrwt>0</asrwt>
<pdfrwt beam="1">  1        2 0.10689268E+00 0.91188000E+02</pdfrwt>
<pdfrwt beam="2">  1       -2 0.46029974E-03 0.91188000E+02</pdfrwt>
<totfact> 0.23665305E+05</totfact>
</mgrwt>
</event>
<event>
 3      1 +4.2044000e+04 9.11880000e+01 7.54677100e-03 1.30000000e-01
        2 -1    0    0  501    0 +0.0000000000e+00 +0.0000000000e+00 +2.4761177976e+01 2.4761177976e+01 0.0000000000e+00 0.0000e+00 -1.0000e+00
       -2 -1    0    0    0  501 -0.0000000000e+00 -0.0000000000e+00 -8.3954520984e+01 8.3954520984e+01 0.0000000000e+00 0.0000e+00 1.0000e+00
       23  1    1    2    0    0 +0.0000000000e+00 +0.0000000000e+00 -5.9193343007e+01 1.0871569896e+02 9.1188000000e+01 0.0000e+00 -1.0000e+00
<mgrwt>
<rscale>  0 0.91188000E+02</rscale>
<asrwt>0</asrwt>
<pdfrwt beam="1">  1        2 0.38094120E-02 0.91188000E+02</pdfrwt>
<pdfrwt beam="2">  1       -2 0.12916080E-01 0.91188000E+02</pdfrwt>
<totfact> 0.83919426E+04</totfact>
</mgrwt>
</event>
<event>
 3      1 +4.2044000e+04 9.11880000e+01 7.54677100e-03 1.30000000e-01
       -3 -1    0    0    0  501 -0.0000000000e+00 +0.0000000000e+00 +8.9691693836e+00 8.9691693836e+00 0.0000000000e+00 0.0000e+00 1.0000e+00
        3 -1    0    0  501    0 +0.0000000000e+00 -0.0000000000e+00 -2.3177317175e+02 2.3177317175e+02 0.0000000000e+00 0.0000e+00 -1.0000e+00
       23  1    1    2    0    0 +0.0000000000e+00 -0.0000000000e+00 -2.2280400237e+02 2.4074234113e+02 9.1188000000e+01 0.0000e+00 1.0000e+00
<mgrwt>
<rscale>  0 0.91188000E+02</rscale>
<asrwt>0</asrwt>
<pdfrwt beam="2">  1        3 0.35657408E-01 0.91188000E+02</pdfrwt>
<pdfrwt beam="1">  1       -3 0.13798723E-02 0.91188000E+02</pdfrwt>
<totfact> 0.26511847E+04</totfact>
</mgrwt>
</event>
<event>
 3      1 +4.2044000e+04 9.11880000e+01 7.54677100e-03 1.30000000e-01
        2 -1    0    0  501    0 +0.0000000000e+00 +0.0000000000e+00 +2.4885235307e+01 2.4885235307e+01 0.0000000000e+00 0.0000e+00 -1.0000e+00
       -2 -1    0    0    0  501 -0.0000000000e+00 -0.0000000000e+00 -8.3535992743e+01 8.3535992743e+01 0.0000000000e+00 0.0000e+00 1.0000e+00
       23  1    1    2    0    0 +0.0000000000e+00 +0.0000000000e+00 -5.8650757436e+01 1.0842122805e+02 9.1188000000e+01 0.0000e+00 -1.0000e+00
<mgrwt>
<rscale>  0 0.91188000E+02</rscale>
<asrwt>0</asrwt>
<pdfrwt beam="1">  1        2 0.38284977E-02 0.91188000E+02</pdfrwt>
<pdfrwt beam="2">  1       -2 0.12851691E-01 0.91188000E+02</pdfrwt>
<totfact> 0.84036891E+04</totfact>
</mgrwt>
</event>
<event>
 3      1 +4.2044000e+04 9.11880000e+01 7.54677100e-03 1.30000000e-01
       -2 -1    0    0    0  501 -0.0000000000e+00 +0.0000000000e+00 +8.9017918337e+00 8.9017918337e+00 0.0000000000e+00 0.0000e+00 1.0000e+00
        2 -1    0    0  501    0 +0.0000000000e+00 -0.0000000000e+00 -2.3352745996e+02 2.3352745996e+02 0.0000000000e+00 0.0000e+00 -1.0000e+00
       23  1    1    2    0    0 +0.0000000000e+00 -0.0000000000e+00 -2.2462566813e+02 2.4242925179e+02 9.1188000000e+01 0.0000e+00 1.0000e+00
<mgrwt>
<rscale>  0 0.91188000E+02</rscale>
<asrwt>0</asrwt>
<pdfrwt beam="2">  1        2 0.35927303E-01 0.91188000E+02</pdfrwt>
<pdfrwt beam="1">  1       -2 0.13695064E-02 0.91188000E+02</pdfrwt>
<totfact> 0.16363506E+05</totfact>
</mgrwt>
</event>
<event>
 3      1 +4.2044000e+04 9.11880000e+01 7.54677100e-03 1.30000000e-01
       -2 -1    0    0    0  501 -0.0000000000e+00 +0.0000000000e+00 +2.9722676705e+02 2.9722676705e+02 0.0000000000e+00 0.0000e+00 1.0000e+00
        2 -1    0    0  501    0 +0.0000000000e+00 -0.0000000000e+00 -6.9940296987e+00 6.9940296987e+00 0.0000000000e+00 0.0000e+00 -1.0000e+00
       23  1    1    2    0    0 +0.0000000000e+00 -0.0000000000e+00 +2.9023273735e+02 3.0422079675e+02 9.1188000000e+01 0.0000e+00 1.0000e+00
<mgrwt>
<rscale>  0 0.91188000E+02</rscale>
<asrwt>0</asrwt>
<pdfrwt beam="2">  1        2 0.10760048E-02 0.91188000E+02</pdfrwt>
<pdfrwt beam="1">  1       -2 0.45727185E-01 0.91188000E+02</pdfrwt>
<totfact> 0.51251378E+04</totfact>
</mgrwt>
</event>
<event>
 3      1 +4.2044000e+04 9.11880000e+01 7.54677100e-03 1.30000000e-01
       -1 -1    0    0    0  501 -0.0000000000e+00 +0.0000000000e+00 +2.1157126975e+00 2.1157126975e+00 0.0000000000e+00 0.0000e+00 1.0000e+00
        1 -1    0    0  501    0 +0.0000000000e+00 -0.0000000000e+00 -9.8255913409e+02 9.8255913409e+02 0.0000000000e+00 0.0000e+00 -1.0000e+00
       23  1    1    2    0    0 +0.0000000000e+00 -0.0000000000e+00 -9.8044342139e+02 9.8467484679e+02 9.1188000000e+01 0.0000e+00 1.0000e+00
<mgrwt>
<rscale>  0 0.91188000E+02</rscale>
<asrwt>0</asrwt>
<pdfrwt beam="2">  1        1 0.15116322E+00 0.91188000E+02</pdfrwt>
<pdfrwt beam="1">  1       -1 0.32549367E-03 0.91188000E+02</pdfrwt>
<totfact> 0.13658825E+05</totfact>
</mgrwt>
</event>
<event>
 3      1 +4.2044000e+04 9.11880000e+01 7.54677100e-03 1.30000000e-01
       -1 -1    0    0    0  501 -0.0000000000e+00 +0.0000000000e+00 +2.3055399130e+01 2.3055399130e+01 0.0000000000e+00 0.0000e+00 1.0000e+00
        1 -1    0    0  501    0 +0.0000000000e+00 -0.0000000000e+00 -9.0165987772e+01 9.0165987772e+01 0.0000000000e+00 0.0000e+00 -1.0000e+00
       23  1    1    2    0    0 +0.0000000000e+00 -0.0000000000e+00 -6.7110588642e+01 1.1322138690e+02 9.1188000000e+01 0.0000e+00 1.0000e+00
<mgrwt>
<rscale>  0 0.91188000E+02</rscale>
<asrwt>0</asrwt>
<pdfrwt beam="2">  1        1 0.13871690E-01 0.91188000E+02</pdfrwt>
<pdfrwt beam="1">  1       -1 0.35469845E-02 0.91188000E+02</pdfrwt>
<totfact> 0.10265667E+05</totfact>
</mgrwt>
</event>
<event>
 3      1 +4.2044000e+04 9.11880000e+01 7.54677100e-03 1.30000000e-01
       -3 -1    0    0    0  501 -0.0000000000e+00 +0.0000000000e+00 +8.1107503867e+02 8.1107503867e+02 0.0000000000e+00 0.0000e+00 1.0000e+00
        3 -1    0    0  501    0 +0.0000000000e+00 -0.0000000000e+00 -2.5630339203e+00 2.5630339203e+00 0.0000000000e+00 0.0000e+00 -1.0000e+00
       23  1    1    2    0    0 +0.0000000000e+00 -0.0000000000e+00 +8.0851200475e+02 8.1363807259e+02 9.1188000000e+01 0.0000e+00 1.0000e+00
<mgrwt>
<rscale>  0 0.91188000E+02</rscale>
<asrwt>0</asrwt>
<pdfrwt beam="2">  1        3 0.39431356E-03 0.91188000E+02</pdfrwt>
<pdfrwt beam="1">  1       -3 0.12478057E+00 0.91188000E+02</pdfrwt>
<totfact> 0.12183119E+04</totfact>
</mgrwt>
</event>
<event>
 3      1 +4.2044000e+04 9.11880000e+01 7.54677100e-03 1.30000000e-01
        1 -1    0    0  501    0 +0.0000000000e+00 +0.0000000000e+00 +1.2678598674e+02 1.2678598674e+02 0.0000000000e+00 0.0000e+00 -1.0000e+00
       -1 -1    0    0    0  501 -0.0000000000e+00 -0.0000000000e+00 -1.6396235021e+01 1.6396235021e+01 0.0000000000e+00 0.0000e+00 1.0000e+00
       23  1    1    2    0    0 +0.0000000000e+00 +0.0000000000e+00 +1.1038975172e+02 1.4318222176e+02 9.1188000000e+01 0.0000e+00 -1.0000e+00
<mgrwt>
<rscale>  0 0.91188000E+02</rscale>
<asrwt>0</asrwt>
<pdfrwt beam="1">  1        1 0.19505536E-01 0.91188000E+02</pdfrwt>
<pdfrwt beam="2">  1       -1 0.25224978E-02 0.91188000E+02</pdfrwt>
<totfact> 0.10874712E+05</totfact>
</mgrwt>
</event>
<event>
 3      1 +4.2044000e+04 9.11880000e+01 7.54677100e-03 1.30000000e-01
        2 -1    0    0  501    0 +0.0000000000e+00 +0.0000000000e+00 +4.6870447684e+02 4.6870447684e+02 0.0000000000e+00 0.0000e+00 -1.0000e+00
       -2 -1    0    0    0  501 -0.0000000000e+00 -0.0000000000e+00 -4.4352314491e+00 4.4352314491e+00 0.0000000000e+00 0.0000e+00 1.0000e+00
       23  1    1    2    0    0 +0.0000000000e+00 +0.0000000000e+00 +4.6426924539e+02 4.7313970829e+02 9.1188000000e+01 0.0000e+00 -1.0000e+00
<mgrwt>
<rscale>  0 0.91188000E+02</rscale>
<asrwt>0</asrwt>
<pdfrwt beam="1">  1        2 0.72108342E-01 0.91188000E+02</pdfrwt>
<pdfrwt beam="2">  1       -2 0.68234367E-03 0.91188000E+02</pdfrwt>
<totfact> 0.21086928E+05</totfact>
</mgrwt>
</event>
<event>
 3      1 +4.2044000e+04 9.11880000e+01 7.54677100e-03 1.30000000e-01
       -2 -1    0    0    0  501 -0.0000000000e+00 +0.0000000000e+00 +2.6349577156e+00 2.6349577156e+00 0.0000000000e+00 0.0000e+00 1.0000e+00
        2 -1    0    0  501    0 +0.0000000000e+00 -0.0000000000e+00 -7.8893593763e+02 7.8893593763e+02 0.0000000000e+00 0.0000e+00 -1.0000e+00
       23  1    1    2    0    0 +0.0000000000e+00 -0.0000000000e+00 -7.8630097992e+02 7.9157089535e+02 9.1188000000e+01 0.0000e+00 1.0000e+00
<mgrwt>
<rscale>  0 0.91188000E+02</rscale>
<asrwt>0</asrwt>
<pdfrwt beam="2">  1        2 0.12137483E+00 0.91188000E+02</pdfrwt>
<pdfrwt beam="1">  1       -2 0.40537786E-03 0.91188000E+02</pdfrwt>
<totfact> 0.24305442E+05</totfact>
</mgrwt>
</event>
<event>
 3      1 +4.2044000e+04 9.11880000e+01 7.54677100e-03 1.30000000e-01
       -2 -1    0    0    0  501 -0.0000000000e+00 +0.0000000000e+00 +4.7216859358e+01 4.7216859358e+01 0.0000000000e+00 0.0000e+00 1.0000e+00
        2 -1    0    0  501    0 +0.0000000000e+00 -0.0000000000e+00 -4.4026918864e+01 4.4026918864e+01 0.0000000000e+00 0.0000e+00 -1.0000e+00
       23  1    1    2    0    0 +0.0000000000e+00 -0.0000000000e+00 +3.1899404940e+00 9.1243778223e+01 9.1188000000e+01 0.0000e+00 1.0000e+00
<mgrwt>
<rscale>  0 0.91188000E+02</rscale>
<asrwt>0</asrwt>
<pdfrwt beam="2">  1        2 0.67733721E-02 0.91188000E+02</pdfrwt>
<pdfrwt beam="1">  1       -2 0.72641322E-02 0.91188000E+02</pdfrwt>
<totfact> 0.97752291E+04</totfact>
</mgrwt>
</event>
<event>
 3      1 +4.2044000e+04 9.11880000e+01 7.54677100e-03 1.30000000e-01
        1 -1    0    0  501    0 +0.0000000000e+00 +0.0000000000e+00 +1.6096507583e+02 1.6096507583e+02 0.0000000000e+00 0.0000e+00 -1.0000e+00
       -1 -1    0    0    0  501 -0.0000000000e+00 -0.0000000000e+00 -1.2914682426e+01 1.2914682426e+01 0.0000000000e+00 0.0000e+00 1.0000e+00
       23  1    1    2    0    0 +0.0000000000e+00 +0.0000000000e+00 +1.4805039341e+02 1.7387975826e+02 9.1188000000e+01 0.0000e+00 -1.0000e+00
<mgrwt>
<rscale>  0 0.91188000E+02</rscale>
<asrwt>0</asrwt>
<pdfrwt beam="1">  1        1 0.24763856E-01 0.91188000E+02</pdfrwt>
<pdfrwt beam="2">  1       -1 0.19868743E-02 0.91188000E+02</pdfrwt>
<totfact> 0.11356981E+05</totfact>
</mgrwt>
</event>
<event>
 3      1 +4.2044000e+04 9.11880000e+01 7.54677100e-03 1.30000000e-01
       -1 -1    0    0    0  501 -0.0000000000e+00 +0.0000000000e+00 +6.4260664848e+00 6.4260664848e+00 0.0000000000e+00 0.0000e+00 1.0000e+00
        1 -1    0    0  501    0 +0.0000000000e+00 -0.0000000000e+00 -3.2349693874e+02 3.2349693874e+02 0.0000000000e+00 0.0000e+00 -1.0000e+00
       23  1    1    2    0    0 +0.0000000000e+00 -0.0000000000e+00 -3.1707087226e+02 3.2992300523e+02 9.1188000000e+01 0.0000e+00 1.0000e+00
<mgrwt>
<rscale>  0 0.91188000E+02</rscale>
<asrwt>0</asrwt>
<pdfrwt beam="2">  1        1 0.49768763E-01 0.91188000E+02</pdfrwt>
<pdfrwt beam="1">  1       -1 0.98862554E-03 0.91188000E+02</pdfrwt>
<totfact> 0.12991157E+05</totfact>
</mgrwt>
</event>
<event>
 3      1 +4.2044000e+04 9.11880000e+01 7.54677100e-03 1.30000000e-01
       -3 -1    0    0    0  501 -0.0000000000e+00 +0.0000000000e+00 +6.6409918036e+00 6.6409918036e+00 0.0000000000e+00 0.0000e+00 1.0000e+00
        3 -1    0    0  501    0 +0.0000000000e+00 -0.0000000000e+00 -3.1302746600e+02 3.1302746600e+02 0.0000000000e+00 0.0000e+00 -1.0000e+00
       23  1    1    2    0    0 +0.0000000000e+00 -0.0000000000e+00 -3.0638647420e+02 3.1966845780e+02 9.1188000000e+01 0.0000e+00 1.0000e+00
<mgrwt>
<rscale>  0 0.91188000E+02</rscale>
<asrwt>0</asrwt>
<pdfrwt beam="2">  1        3 0.48158067E-01 0.91188000E+02</pdfrwt>
<pdfrwt beam="1">  1       -3 0.10216912E-02 0.91188000E+02</pdfrwt>
<totfact> 0.23282077E+04</totfact>
</mgrwt>
</event>
<event>
 3      1 +4.2044000e+04 9.11880000e+01 7.54677100e-03 1.30000000e-01
       -1 -1    0    0    0  501 -0.0000000000e+00 +0.0000000000e+00 +5.2765745212e+01 5.2765745212e+01 0.0000000000e+00 0.0000e+00 1.0000e+00
        1 -1    0    0  501    0 +0.0000000000e+00 -0.0000000000e+00 -3.9397014629e+01 3.9397014629e+01 0.0000000000e+00 0.0000e+00 -1.0000e+00
       23  1    1    2    0    0 +0.0000000000e+00 -0.0000000000e+00 +1.3368730583e+01 9.2162759840e+01 9.1188000000e+01 0.0000e+00 1.0000e+00
<mgrwt>
<rscale>  0 0.91188000E+02</rscale>
<asrwt>0</asrwt>
<pdfrwt beam="2">  1        1 0.60610791E-02 0.91188000E+02</pdfrwt>
<pdfrwt beam="1">  1       -1 0.81178070E-02 0.91188000E+02</pdfrwt>
<totfact> 0.90423120E+04</totfact>
</mgrwt>
</event>
<event>
 3      1 +4.2044000e+04 9.11880000e+01 7.54677100e-03 1.30000000e-01
        1 -1    0    0  501    0 +0.0000000000e+00 +0.0000000000e+00 +1.8095510413e+03 1.8095510413e+03 0.0000000000e+00 0.0000e+00 1.0000e+00
       -1 -1    0    0    0  501 -0.0000000000e+00 -0.0000000000e+00 -1.1488003314e+00 1.1488003314e+00 0.0000000000e+00 0.0000e+00 -1.0000e+00
       23  1    1    2    0    0 +0.0000000000e+00 +0.0000000000e+00 +1.8084022410e+03 1.8106998417e+03 9.1188000000e+01 0.0000e+00 1.0000e+00
<mgrwt>
<rscale>  0 0.91188000E+02</rscale>
<asrwt>0</asrwt>
<pdfrwt beam="1">  1        1 0.27839019E+00 0.91188000E+02</pdfrwt>
<pdfrwt beam="2">  1       -1 0.17673996E-03 0.91188000E+02</pdfrwt>
<totfact> 0.91356206E+04</totfact>
</mgrwt>
</event>
<event>
 3      1 +4.2044000e+04 9.11880000e+01 7.54677100e-03 1.30000000e-01
        1 -1    0    0  501    0 +0.0000000000e+00 +0.0000000000e+00 +6.5015934483e+01 6.5015934483e+01 0.0000000000e+00 0.0000e+00 1.0000e+00
       -1 -1    0    0    0  501 -0.0000000000e+00 -0.0000000000e+00 -3.1973897669e+01 3.1973897669e+01 0.0000000000e+00 0.0000e+00 -1.0000e+00
       23  1    1    2    0    0 +0.0000000000e+00 +0.0000000000e+00 +3.3042036814e+01 9.6989832152e+01 9.1188000000e+01 0.0000e+00 1.0000e+00
<mgrwt>
<rscale>  0 0.91188000E+02</rscale>
<asrwt>0</asrwt>
<pdfrwt beam="1">  1        1 0.10002451E-01 0.91188000E+02</pdfrwt>
<pdfrwt beam="2">  1       -1 0.49190612E-02 0.91188000E+02</pdfrwt>
<totfact> 0.97521505E+04</totfact>
</mgrwt>
</event>
<event>
 3      1 +4.2044000e+04 9.11880000e+01 7.54677100e-03 1.30000000e-01
        2 -1    0    0  501    0 +0.0000000000e+00 +0.0000000000e+00 +6.7587993759e+02 6.7587993759e+02 0.0000000000e+00 0.0000e+00 -1.0000e+00
       -2 -1    0    0    0  501 -0.0000000000e+00 -0.0000000000e+00 -3.0757131857e+00 3.0757131857e+00 0.0000000000e+00 0.0000e+00 1.0000e+00
       23  1    1    2    0    0 +0.0000000000e+00 +0.0000000000e+00 +6.7280422441e+02 6.7895565078e+02 9.1188000000e+01 0.0000e+00 -1.0000e+00
<mgrwt>
<rscale>  0 0.91188000E+02</rscale>
<asrwt>0</asrwt>
<pdfrwt beam="1">  1        2 0.10398141E+00 0.91188000E+02</pdfrwt>
<pdfrwt beam="2">  1       -2 0.47318718E-03 0.91188000E+02</pdfrwt>
<totfact> 0.23508506E+05</totfact>
</mgrwt>
</event>
<event>
 3      1 +4.2044000e+04 9.11880000e+01 7.54677100e-03 1.30000000e-01
       -2 -1    0    0    0  501 -0.0000000000e+00 +0.0000000000e+00 +2.7458124947e+01 2.7458124947e+01 0.0000000000e+00 0.0000e+00 1.0000e+00
        2 -1    0    0  501    0 +0.0000000000e+00 -0.0000000000e+00 -7.5708477545e+01 7.5708477545e+01 0.0000000000e+00 0.0000e+00 -1.0000e+00
       23  1    1    2    0    0 +0.0000000000e+00 -0.0000000000e+00 -4.8250352598e+01 1.0316660249e+02 9.1188000000e+01 0.0000e+00 1.0000e+00
<mgrwt>
<rscale>  0 0.91188000E+02</rscale>
<asrwt>0</asrwt>
<pdfrwt beam="2">  1        2 0.11647458E-01 0.91188000E+02</pdfrwt>
<pdfrwt beam="1">  1       -2 0.42243270E-02 0.91188000E+02</pdfrwt>
<totfact> 0.11303248E+05</totfact>
</mgrwt>
</event>
<event>
 3      1 +4.2044000e+04 9.11880000e+01 7.54677100e-03 1.30000000e-01
        1 -1    0    0  501    0 +0.0000000000e+00 +0.0000000000e+00 +7.5428231926e+02 7.5428231926e+02 0.0000000000e+00 0.0000e+00 -1.0000e+00
       -1 -1    0    0    0  501 -0.0000000000e+00 -0.0000000000e+00 -2.7560142707e+00 2.7560142707e+00 0.0000000000e+00 0.0000e+00 1.0000e+00
       23  1    1    2    0    0 +0.0000000000e+00 +0.0000000000e+00 +7.5152630499e+02 7.5703833353e+02 9.1188000000e+01 0.0000e+00 -1.0000e+00
<mgrwt>
<rscale>  0 0.91188000E+02</rscale>
<asrwt>0</asrwt>
<pdfrwt beam="1">  1        1 0.11604327E+00 0.91188000E+02</pdfrwt>
<pdfrwt beam="2">  1       -1 0.42400280E-03 0.91188000E+02</pdfrwt>
<totfact> 0.14182225E+05</totfact>
</mgrwt>
</event>
<event>
 3      1 +4.2044000e+04 9.11880000e+01 7.54677100e-03 1.30000000e-01
       -1 -1    0    0    0  501 -0.0000000000e+00 +0.0000000000e+00 +2.3112542209e+02 2.3112542209e+02 0.0000000000e+00 0.0000e+00 1.0000e+00
        1 -1    0    0  501    0 +0.0000000000e+00 -0.0000000000e+00 -8.9943062828e+00 8.9943062828e+00 0.0000000000e+00 0.0000e+00 -1.0000e+00
       23  1    1    2    0    0 +0.0000000000e+00 -0.0000000000e+00 +2.2213111580e+02 2.4011972837e+02 9.1188000000e+01 0.0000e+00 1.0000e+00
<mgrwt>
<rscale>  0 0.91188000E+02</rscale>
<asrwt>0</asrwt>
<pdfrwt beam="2">  1        1 0.13837396E-02 0.91188000E+02</pdfrwt>
<pdfrwt beam="1">  1       -1 0.35557753E-01 0.91188000E+02</pdfrwt>
<totfact> 0.66436574E+04</totfact>
</mgrwt>
</event>
<event>
 3      1 +4.2044000e+04 9.11880000e+01 7.54677100e-03 1.30000000e-01
       -3 -1    0    0    0  501 -0.0000000000e+00 +0.0000000000e+00 +1.1792540028e+02 1.1792540028e+02 0.0000000000e+00 0.0000e+00 1.0000e+00
        3 -1    0    0  501    0 +0.0000000000e+00 -0.0000000000e+00 -1.7628202500e+01 1.7628202500e+01 0.0000000000e+00 0.0000e+00 -1.0000e+00
       23  1    1    2    0    0 +0.0000000000e+00 -0.0000000000e+00 +1.0029719778e+02 1.3555360278e+02 9.1188000000e+01 0.0000e+00 1.0000e+00
<mgrwt>
<rscale>  0 0.91188000E+02</rscale>
<asrwt>0</asrwt>
<pdfrwt beam="2">  1        3 0.27120312E-02 0.91188000E+02</pdfrwt>
<pdfrwt beam="1">  1       -3 0.18142369E-01 0.91188000E+02</pdfrwt>
<totfact> 0.32205128E+04</totfact>
</mgrwt>
</event>
<event>
 3      1 +4.2044000e+04 9.11880000e+01 7.54677100e-03 1.30000000e-01
        2 -1    0    0  501    0 +0.0000000000e+00 +0.0000000000e+00 +2.2826665581e+03 2.2826665581e+03 0.0000000000e+00 0.0000e+00 -1.0000e+00
       -2 -1    0    0    0  501 -0.0000000000e+00 -0.0000000000e+00 -9.1069491889e-01 9.1069491889e-01 0.0000000000e+00 0.0000e+00 1.0000e+00
       23  1    1    2    0    0 +0.0000000000e+00 +0.0000000000e+00 +2.2817558632e+03 2.2835772530e+03 9.1188000000e+01 0.0000e+00 -1.0000e+00
<mgrwt>
<rscale>  0 0.91188000E+02</rscale>
<asrwt>0</asrwt>
<pdfrwt beam="1">  1        2 0.35117489E+00 0.91188000E+02</pdfrwt>
<pdfrwt beam="2">  1       -2 0.14010874E-03 0.91188000E+02</pdfrwt>
<totfact> 0.16979038E+05</totfact>
</mgrwt>
</event>
<event>
 3      1 +4.2044000e+04 9.11880000e+01 7.54677100e-03 1.30000000e-01
        2 -1    0    0  501    0 +0.0000000000e+00 +0.0000000000e+00 +1.5340265021e+03 1.5340265021e+03 0.0000000000e+00 0.0000e+00 -1.0000e+00
       -2 -1    0    0    0  501 -0.0000000000e+00 -0.0000000000e+00 -1.3551348905e+00 1.3551348905e+00 0.0000000000e+00 0.0000e+00 1.0000e+00
       23  1    1    2    0    0 +0.0000000000e+00 +0.0000000000e+00 +1.5326713672e+03 1.5353816370e+03 9.1188000000e+01 0.0000e+00 -1.0000e+00
<mgrwt>
<rscale>  0 0.91188000E+02</rscale>
<asrwt>0</asrwt>
<pdfrwt beam="1">  1        2 0.23600269E+00 0.91188000E+02</pdfrwt>
<pdfrwt beam="2">  1       -2 0.20848352E-03 0.91188000E+02</pdfrwt>
<totfact> 0.23380888E+05</totfact>
</mgrwt>
</event>
<event>
 3      1 +4.2044000e+04 9.11880000e+01 7.54677100e-03 1.30000000e-01
        1 -1    0    0  501    0 +0.0000000000e+00 +0.0000000000e+00 +2.4996322743e+01 2.4996322743e+01 0.0000000000e+00 0.0000e+00 -1.0000e+00
       -1 -1    0    0    0  501 -0.0000000000e+00 -0.0000000000e+00 -8.3164746166e+01 8.3164746166e+01 0.0000000000e+00 0.0000e+00 1.0000e+00
       23  1    1    2    0    0 +0.0000000000e+00 +0.0000000000e+00 -5.8168423423e+01 1.0816106891e+02 9.1188000000e+01 0.0000e+00 -1.0000e+00
<mgrwt>
<rscale>  0 0.91188000E+02</rscale>
<asrwt>0</asrwt>
<pdfrwt beam="1">  1        1 0.38455881E-02 0.91188000E+02</pdfrwt>
<pdfrwt beam="2">  1       -1 0.12794576E-01 0.91188000E+02</pdfrwt>
<totfact> 0.84066750E+04</totfact>
</mgrwt>
</event>
<event>
 3      1 +4.2044000e+04 9.11880000e+01 7.54677100e-03 1.30000000e-01
        1 -1    0    0  501    0 +0.0000000000e+00 +0.0000000000e+00 +1.5688707485e+02 1.5688707485e+02 0.0000000000e+00 0.0000e+00 -1.0000e+00
       -1 -1    0    0    0  501 -0.0000000000e+00 -0.0000000000e+00 -1.3250376667e+01 1.3250376667e+01 0.0000000000e+00 0.0000e+00 1.0000e+00
       23  1    1    2    0    0 +0.0000000000e+00 +0.0000000000e+00 +1.4363669819e+02 1.7013745152e+02 9.1188000000e+01 0.0000e+00 -1.0000e+00
<mgrwt>
<rscale>  0 0.91188000E+02</rscale>
<asrwt>0</asrwt>
<pdfrwt beam="1">  1        1 0.24136472E-01 0.91188000E+02</pdfrwt>
<pdfrwt beam="2">  1       -1 0.20385196E-02 0.91188000E+02</pdfrwt>
<totfact> 0.11302908E+05</totfact>
</mgrwt>
</event>
<event>
 3      1 +4.2044000e+04 9.11880000e+01 7.54677100e-03 1.30000000e-01
        3 -1    0    0  501    0 +0.0000000000e+00 +0.0000000000e+00 +3.2045162126e+01 3.2045162126e+01 0.0000000000e+00 0.0000e+00 -1.0000e+00
       -3 -1    0    0    0  501 -0.0000000000e+00 -0.0000000000e+00 -6.4871347126e+01 6.4871347126e+01 0.0000000000e+00 0.0000e+00 1.0000e+00
       23  1    1    2    0    0 +0.0000000000e+00 +0.0000000000e+00 -3.2826185000e+01 9.6916509252e+01 9.1188000000e+01 0.0000e+00 -1.0000e+00
<mgrwt>
<rscale>  0 0.91188000E+02</rscale>
<asrwt>0</asrwt>
<pdfrwt beam="1">  1        3 0.49300249E-02 0.91188000E+02</pdfrwt>
<pdfrwt beam="2">  1       -3 0.99802073E-02 0.91188000E+02</pdfrwt>
<totfact> 0.34890776E+04</totfact>
</mgrwt>
</event>
<event>
 3      1 +4.2044000e+04 9.11880000e+01 7.54677100e-03 1.30000000e-01
       -2 -1    0    0    0  501 -0.0000000000e+00 +0.0000000000e+00 +6.2154638951e+00 6.2154638951e+00 0.0000000000e+00 0.0000e+00 -1.0000e+00
        2 -1    0    0  501    0 +0.0000000000e+00 -0.0000000000e+00 -3.3445819509e+02 3.3445819509e+02 0.0000000000e+00 0.0000e+00 1.0000e+00
       23  1    1    2    0    0 +0.0000000000e+00 -0.0000000000e+00 -3.2824273119e+02 3.4067365898e+02 9.1188000000e+01 0.0000e+00 -1.0000e+00
<mgrwt>
<rscale>  0 0.91188000E+02</rscale>
<asrwt>0</asrwt>
<pdfrwt beam="2">  1        2 0.51455107E-01 0.91188000E+02</pdfrwt>
<pdfrwt beam="1">  1       -2 0.95622521E-03 0.91188000E+02</pdfrwt>
<totfact> 0.18698924E+05</totfact>
</mgrwt>
</event>
<event>
 3      1 +4.2044000e+04 9.11880000e+01 7.54677100e-03 1.30000000e-01
       -2 -1    0    0    0  501 -0.0000000000e+00 +0.0000000000e+00 +6.9992578932e+01 6.9992578932e+01 0.0000000000e+00 0.0000e+00 1.0000e+00
        2 -1    0    0  501    0 +0.0000000000e+00 -0.0000000000e+00 -2.9700474932e+01 2.9700474932e+01 0.0000000000e+00 0.0000e+00 -1.0000e+00
       23  1    1    2    0    0 +0.0000000000e+00 -0.0000000000e+00 +4.0292103999e+01 9.9693053864e+01 9.1188000000e+01 0.0000e+00 1.0000e+00
<mgrwt>
<rscale>  0 0.91188000E+02</rscale>
<asrwt>0</asrwt>
<pdfrwt beam="2">  1        2 0.45693039E-02 0.91188000E+02</pdfrwt>
<pdfrwt beam="1">  1       -2 0.10768089E-01 0.91188000E+02</pdfrwt>
<totfact> 0.88196989E+04</totfact>
</mgrwt>
</event>
<event>
 3      1 +4.2044000e+04 9.11880000e+01 7.54677100e-03 1.30000000e-01
       -1 -1    0    0    0  501 -0.0000000000e+00 +0.0000000000e+00 +2.0761213478e+01 2.0761213478e+01 0.0000000000e+00 0.0000e+00 1.0000e+00
        1 -1    0    0  501    0 +0.0000000000e+00 -0.0000000000e+00 -1.0012964022e+02 1.0012964022e+02 0.0000000000e+00 0.0000e+00 -1.0000e+00
       23  1    1    2    0    0 +0.0000000000e+00 -0.0000000000e+00 -7.9368426740e+01 1.2089085370e+02 9.1188000000e+01 0.0000e+00 1.0000e+00
<mgrwt>
<rscale>  0 0.91188000E+02</rscale>
<asrwt>0</asrwt>
<pdfrwt beam="2">  1        1 0.15404560E-01 0.91188000E+02</pdfrwt>
<pdfrwt beam="1">  1       -1 0.31940328E-02 0.91188000E+02</pdfrwt>
<totfact> 0.10443935E+05</totfact>
</mgrwt>
</event>
<event>
 3      1 +4.2044000e+04 9.11880000e+01 7.54677100e-03 1.30000000e-01
        1 -1    0    0  501    0 +0.0000000000e+00 +0.0000000000e+00 +2.2893819043e+01 2.2893819043e+01 0.0000000000e+00 0.0000e+00 -1.0000e+00
       -1 -1    0    0    0  501 -0.0000000000e+00 -0.0000000000e+00 -9.0802361639e+01 9.0802361639e+01 0.0000000000e+00 0.0000e+00 1.0000e+00
       23  1    1    2    0    0 +0.0000000000e+00 +0.0000000000e+00 -6.7908542596e+01 1.1369618068e+02 9.1188000000e+01 0.0000e+00 -1.0000e+00
<mgrwt>
<rscale>  0 0.91188000E+02</rscale>
<asrwt>0</asrwt>
<pdfrwt beam="1">  1        1 0.35221260E-02 0.91188000E+02</pdfrwt>
<pdfrwt beam="2">  1       -1 0.13969594E-01 0.91188000E+02</pdfrwt>
<totfact> 0.82785314E+04</totfact>
</mgrwt>
</event>
<event>
 3      1 +4.2044000e+04 9.11880000e+01 7.54677100e-03 1.30000000e-01
        1 -1    0    0  501    0 +0.0000000000e+00 +0.0000000000e+00 +9.4858287378e+01 9.4858287378e+01 0.0000000000e+00 0.0000e+00 -1.0000e+00
       -1 -1    0    0    0  501 -0.0000000000e+00 -0.0000000000e+00 -2.1914931141e+01 2.1914931141e+01 0.0000000000e+00 0.0000e+00 1.0000e+00
       23  1    1    2    0    0 +0.0000000000e+00 +0.0000000000e+00 +7.2943356237e+01 1.1677321852e+02 9.1188000000e+01 0.0000e+00 -1.0000e+00
<mgrwt>
<rscale>  0 0.91188000E+02</rscale>
<asrwt>0</asrwt>
<pdfrwt beam="1">  1        1 0.14593582E-01 0.91188000E+02</pdfrwt>
<pdfrwt beam="2">  1       -1 0.33715279E-02 0.91188000E+02</pdfrwt>
<totfact> 0.10351017E+05</totfact>
</mgrwt>
</event>
<event>
 3      1 +4.2044000e+04 9.11880000e+01 7.54677100e-03 1.30000000e-01
        1 -1    0    0  501    0 +0.0000000000e+00 +0.0000000000e+00 +7.8751549212e+01 7.8751549212e+01 0.0000000000e+00 0.0000e+00 -1.0000e+00
       -1 -1    0    0    0  501 -0.0000000000e+00 -0.0000000000e+00 -2.6397104016e+01 2.6397104016e+01 0.0000000000e+00 0.0000e+00 1.0000e+00
       23  1    1    2    0    0 +0.0000000000e+00 +0.0000000000e+00 +5.2354445195e+01 1.0514865323e+02 9.1188000000e+01 0.0000e+00 -1.0000e+00
<mgrwt>
<rscale>  0 0.91188000E+02</rscale>
<asrwt>0</asrwt>
<pdfrwt beam="1">  1        1 0.12115623E-01 0.91188000E+02</pdfrwt>
<pdfrwt beam="2">  1       -1 0.40610930E-02 0.91188000E+02</pdfrwt>
<totfact> 0.10046095E+05</totfact>
</mgrwt>
</event>
<event>
 3      1 +4.2044000e+04 9.11880000e+01 7.54677100e-03 1.30000000e-01
        2 -1    0    0  501    0 +0.0000000000e+00 +0.0000000000e+00 +9.6756779058e+00 9.6756779058e+00 0.0000000000e+00 0.0000e+00 -1.0000e+00
       -2 -1    0    0    0  501 -0.0000000000e+00 -0.0000000000e+00 -2.1484932180e+02 2.1484932180e+02 0.0000000000e+00 0.0000e+00 1.0000e+00
       23  1    1    2    0    0 +0.0000000000e+00 +0.0000000000e+00 -2.0517364389e+02 2.2452499970e+02 9.1188000000e+01 0.0000e+00 -1.0000e+00
<mgrwt>
<rscale>  0 0.91188000E+02</rscale>
<asrwt>0</asrwt>
<pdfrwt beam="1">  1        2 0.14885659E-02 0.91188000E+02</pdfrwt>
<pdfrwt beam="2">  1       -2 0.33053740E-01 0.91188000E+02</pdfrwt>
<totfact> 0.60354900E+04</totfact>
</mgrwt>
</event>
<event>
 3      1 +4.2044000e+04 9.11880000e+01 7.54677100e-03 1.30000000e-01
       -2 -1    0    0    0  501 -0.0000000000e+00 +0.0000000000e+00 +5.2610824551e+00 5.2610824551e+00 0.0000000000e+00 0.0000e+00 1.0000e+00
        2 -1    0    0  501    0 +0.0000000000e+00 -0.0000000000e+00 -3.9513025195e+02 3.9513025195e+02 0.0000000000e+00 0.0000e+00 -1.0000e+00
       23  1    1    2    0    0 +0.0000000000e+00 -0.0000000000e+00 -3.8986916949e+02 4.0039133441e+02 9.1188000000e+01 0.0000e+00 1.0000e+00
<mgrwt>
<rscale>  0 0.91188000E+02</rscale>
<asrwt>0</asrwt>
<pdfrwt beam="2">  1        2 0.60789261E-01 0.91188000E+02</pdfrwt>
<pdfrwt beam="1">  1       -2 0.80939741E-03 0.91188000E+02</pdfrwt>
<totfact> 0.19868654E+05</totfact>
</mgrwt>
</event>
<event>
 3      1 +4.2044000e+04 9.11880000e+01 7.54677100e-03 1.30000000e-01
       -2 -1    0    0    0  501 -0.0000000000e+00 +0.0000000000e+00 +1.5686535074e+01 1.5686535074e+01 0.0000000000e+00 0.0000e+00 -1.0000e+00
        2 -1    0    0  501    0 +0.0000000000e+00 -0.0000000000e+00 -1.3252211698e+02 1.3252211698e+02 0.0000000000e+00 0.0000e+00 1.0000e+00
       23  1    1    2    0    0 +0.0000000000e+00 -0.0000000000e+00 -1.1683558190e+02 1.4820865205e+02 9.1188000000e+01 0.0000e+00 -1.0000e+00
<mgrwt>
<rscale>  0 0.91188000E+02</rscale>
<asrwt>0</asrwt>
<pdfrwt beam="2">  1        2 0.20388018E-01 0.91188000E+02</pdfrwt>
<pdfrwt beam="1">  1       -2 0.24133131E-02 0.91188000E+02</pdfrwt>
<totfact> 0.13408093E+05</totfact>
</mgrwt>
</event>
<event>
 3      1 +4.2044000e+04 9.11880000e+01 7.54677100e-03 1.30000000e-01
        2 -1    0    0  501    0 +0.0000000000e+00 +0.0000000000e+00 +1.9029263676e+01 1.9029263676e+01 0.0000000000e+00 0.0000e+00 -1.0000e+00
       -2 -1    0    0    0  501 -0.0000000000e+00 -0.0000000000e+00 -1.0924294662e+02 1.0924294662e+02 0.0000000000e+00 0.0000e+00 1.0000e+00
       23  1    1    2    0    0 +0.0000000000e+00 +0.0000000000e+00 -9.0213682948e+01 1.2827221030e+02 9.1188000000e+01 0.0000e+00 -1.0000e+00
<mgrwt>
<rscale>  0 0.91188000E+02</rscale>
<asrwt>0</asrwt>
<pdfrwt beam="1">  1        2 0.29275790E-02 0.91188000E+02</pdfrwt>
<pdfrwt beam="2">  1       -2 0.16806607E-01 0.91188000E+02</pdfrwt>
<totfact> 0.77667431E+04</totfact>
</mgrwt>
</event>
<event>
 3      1 +4.2044000e+04 9.11880000e+01 7.54677100e-03 1.30000000e-01
       -1 -1    0    0    0  501 -0.0000000000e+00 +0.0000000000e+00 +2.1069558932e+00 2.1069558932e+00 0.0000000000e+00 0.0000e+00 1.0000e+00
        1 -1    0    0  501    0 +0.0000000000e+00 -0.0000000000e+00 -9.8664278771e+02 9.8664278771e+02 0.0000000000e+00 0.0000e+00 -1.0000e+00
       23  1    1    2    0    0 +0.0000000000e+00 -0.0000000000e+00 -9.8453583181e+02 9.8874974360e+02 9.1188000000e+01 0.0000e+00 1.0000e+00
<mgrwt>
<rscale>  0 0.91188000E+02</rscale>
<asrwt>0</asrwt>
<pdfrwt beam="2">  1        1 0.15179127E+00 0.91188000E+02</pdfrwt>
<pdfrwt beam="1">  1       -1 0.32414692E-03 0.91188000E+02</pdfrwt>
<totfact> 0.13644615E+05</totfact>
</mgrwt>
</event>
<event>
 3      1 +4.2044000e+04 9.11880000e+01 7.54677100e-03 1.30000000e-01
        1 -1    0    0  501    0 +0.0000000000e+00 +0.0000000000e+00 +9.9281771091e+00 9.9281771091e+00 0.0000000000e+00 0.0000e+00 -1.0000e+00
       -1 -1    0    0    0  501 -0.0000000000e+00 -0.0000000000e+00 -2.0938514827e+02 2.0938514827e+02 0.0000000000e+00 0.0000e+00 1.0000e+00
       23  1    1    2    0    0 +0.0000000000e+00 +0.0000000000e+00 -1.9945697116e+02 2.1931332538e+02 9.1188000000e+01 0.0000e+00 -1.0000e+00
<mgrwt>
<rscale>  0 0.91188000E+02</rscale>
<asrwt>0</asrwt>
<pdfrwt beam="1">  1        1 0.15274120E-02 0.91188000E+02</pdfrwt>
<pdfrwt beam="2">  1       -1 0.32213096E-01 0.91188000E+02</pdfrwt>
<totfact> 0.68482679E+04</totfact>
</mgrwt>
</event>
<event>
 3      1 +4.2044000e+04 9.11880000e+01 7.54677100e-03 1.30000000e-01
       -1 -1    0    0    0  501 -0.0000000000e+00 +0.0000000000e+00 +1.7625717354e+01 1.7625717354e+01 0.0000000000e+00 0.0000e+00 1.0000e+00
        1 -1    0    0  501    0 +0.0000000000e+00 -0.0000000000e+00 -1.1794202722e+02 1.1794202722e+02 0.0000000000e+00 0.0000e+00 -1.0000e+00
       23  1    1    2    0    0 +0.0000000000e+00 -0.0000000000e+00 -1.0031630987e+02 1.3556774458e+02 9.1188000000e+01 0.0000e+00 1.0000e+00
<mgrwt>
<rscale>  0 0.91188000E+02</rscale>
<asrwt>0</asrwt>
<pdfrwt beam="2">  1        1 0.18144927E-01 0.91188000E+02</pdfrwt>
<pdfrwt beam="1">  1       -1 0.27116488E-02 0.91188000E+02</pdfrwt>
<totfact> 0.10738044E+05</totfact>
</mgrwt>
</event>
<event>
 3      1 +4.2044000e+04 9.11880000e+01 7.54677100e-03 1.30000000e-01
       -1 -1    0    0    0  501 -0.0000000000e+00 +0.0000000000e+00 +2.8787724074e+01 2.8787724074e+01 0.0000000000e+00 0.0000e+00 1.0000e+00
        1 -1    0    0  501    0 +0.0000000000e+00 -0.0000000000e+00 -7.2211781337e+01 7.2211781337e+01 0.0000000000e+00 0.0000e+00 -1.0000e+00
       23  1    1    2    0    0 +0.0000000000e+00 -0.0000000000e+00 -4.3424057264e+01 1.0099950541e+02 9.1188000000e+01 0.0000e+00 1.0000e+00
<mgrwt>
<rscale>  0 0.91188000E+02</rscale>
<asrwt>0</asrwt>
<pdfrwt beam="2">  1        1 0.11109505E-01 0.91188000E+02</pdfrwt>
<pdfrwt beam="1">  1       -1 0.44288807E-02 0.91188000E+02</pdfrwt>
<totfact> 0.99109568E+04</totfact>
</mgrwt>
</event>
<event>
 3      1 +4.2044000e+04 9.11880000e+01 7.54677100e-03 1.30000000e-01
        2 -1    0    0  501    0 +0.0000000000e+00 +0.0000000000e+00 +1.7005540463e+00 1.7005540463e+00 0.0000000000e+00 0.0000e+00 -1.0000e+00
       -2 -1    0    0    0  501 -0.0000000000e+00 -0.0000000000e+00 -1.2224326775e+03 1.2224326775e+03 0.0000000000e+00 0.0000e+00 1.0000e+00
       23  1    1    2    0    0 +0.0000000000e+00 +0.0000000000e+00 -1.2207321234e+03 1.2241332315e+03 9.1188000000e+01 0.0000e+00 -1.0000e+00
<mgrwt>
<rscale>  0 0.91188000E+02</rscale>
<asrwt>0</asrwt>
<pdfrwt beam="1">  1        2 0.26162401E-03 0.91188000E+02</pdfrwt>
<pdfrwt beam="2">  1       -2 0.18806634E+00 0.91188000E+02</pdfrwt>
<totfact> 0.14482793E+04</totfact>
</mgrwt>
</event>
<event>
 3      1 +4.2044000e+04 9.11880000e+01 7.54677100e-03 1.30000000e-01
        3 -1    0    0  501    0 +0.0000000000e+00 +0.0000000000e+00 +1.5511565323e+02 1.5511565323e+02 0.0000000000e+00 0.0000e+00 -1.0000e+00
       -3 -1    0    0    0  501 -0.0000000000e+00 -0.0000000000e+00 -1.3401696042e+01 1.3401696042e+01 0.0000000000e+00 0.0000e+00 1.0000e+00
       23  1    1    2    0    0 +0.0000000000e+00 +0.0000000000e+00 +1.4171395719e+02 1.6851734927e+02 9.1188000000e+01 0.0000e+00 -1.0000e+00
<mgrwt>
<rscale>  0 0.91188000E+02</rscale>
<asrwt>0</asrwt>
<pdfrwt beam="1">  1        3 0.23863945E-01 0.91188000E+02</pdfrwt>
<pdfrwt beam="2">  1       -3 0.20617995E-02 0.91188000E+02</pdfrwt>
<totfact> 0.30201198E+04</totfact>
</mgrwt>
</event>
<event>
 3      1 +4.2044000e+04 9.11880000e+01 7.54677100e-03 1.30000000e-01
       -4 -1    0    0    0  501 -0.0000000000e+00 +0.0000000000e+00 +5.5057188299e+01 5.5057188299e+01 0.0000000000e+00 0.0000e+00 1.0000e+00
        4 -1    0    0  501    0 +0.0000000000e+00 -0.0000000000e+00 -3.7757337420e+01 3.7757337420e+01 0.0000000000e+00 0.0000e+00 -1.0000e+00
       23  1    1    2    0    0 +0.0000000000e+00 -0.0000000000e+00 +1.7299850878e+01 9.2814525719e+01 9.1188000000e+01 0.0000e+00 1.0000e+00
<mgrwt>
<rscale>  0 0.91188000E+02</rscale>
<asrwt>0</asrwt>
<pdfrwt beam="2">  1        4 0.58088212E-02 0.91188000E+02</pdfrwt>
<pdfrwt beam="1">  1       -4 0.84703366E-02 0.91188000E+02</pdfrwt>
<totfact> 0.26902369E+04</totfact>
</mgrwt>
</event>
<event>
 3      1 +4.2044000e+04 9.11880000e+01 7.54677100e-03 1.30000000e-01
        2 -1    0    0  501    0 +0.0000000000e+00 +0.0000000000e+00 +6.4610041083e+01 6.4610041083e+01 0.0000000000e+00 0.0000e+00 -1.0000e+00
       -2 -1    0    0    0  501 -0.0000000000e+00 -0.0000000000e+00 -3.2174764187e+01 3.2174764187e+01 0.0000000000e+00 0.0000e+00 1.0000e+00
       23  1    1    2    0    0 +0.0000000000e+00 +0.0000000000e+00 +3.2435276896e+01 9.6784805271e+01 9.1188000000e+01 0.0000e+00 -1.0000e+00
<mgrwt>
<rscale>  0 0.91188000E+02</rscale>
<asrwt>0</asrwt>
<pdfrwt beam="1">  1        2 0.99400063E-02 0.91188000E+02</pdfrwt>
<pdfrwt beam="2">  1       -2 0.49499637E-02 0.91188000E+02</pdfrwt>
<totfact> 0.10817513E+05</totfact>
</mgrwt>
</event>
<event>
 3      1 +4.2044000e+04 9.11880000e+01 7.54677100e-03 1.30000000e-01
       -1 -1    0    0    0  501 -0.0000000000e+00 +0.0000000000e+00 +6.8364225458e+01 6.8364225458e+01 0.0000000000e+00 0.0000e+00 1.0000e+00
        1 -1    0    0  501    0 +0.0000000000e+00 -0.0000000000e+00 -3.0407904457e+01 3.0407904457e+01 0.0000000000e+00 0.0000e+00 -1.0000e+00
       23  1    1    2    0    0 +0.0000000000e+00 -0.0000000000e+00 +3.7956321001e+01 9.8772129915e+01 9.1188000000e+01 0.0000e+00 1.0000e+00
<mgrwt>
<rscale>  0 0.91188000E+02</rscale>
<asrwt>0</asrwt>
<pdfrwt beam="2">  1        1 0.46781392E-02 0.91188000E+02</pdfrwt>
<pdfrwt beam="1">  1       -1 0.10517573E-01 0.91188000E+02</pdfrwt>
<totfact> 0.86842698E+04</totfact>
</mgrwt>
</event>
<event>
 3      1 +4.2044000e+04 9.11880000e+01 7.54677100e-03 1.30000000e-01
       -2 -1    0    0    0  501 -0.0000000000e+00 +0.0000000000e+00 +4.4578633335e+00 4.4578633335e+00 0.0000000000e+00 0.0000e+00 1.0000e+00
        2 -1    0    0  501    0 +0.0000000000e+00 -0.0000000000e+00 -4.6632493652e+02 4.6632493652e+02 0.0000000000e+00 0.0000e+00 -1.0000e+00
       23  1    1    2    0    0 +0.0000000000e+00 -0.0000000000e+00 -4.6186707318e+02 4.7078279985e+02 9.1188000000e+01 0.0000e+00 1.0000e+00
<mgrwt>
<rscale>  0 0.91188000E+02</rscale>
<asrwt>0</asrwt>
<pdfrwt beam="2">  1        2 0.71742288E-01 0.91188000E+02</pdfrwt>
<pdfrwt beam="1">  1       -2 0.68582522E-03 0.91188000E+02</pdfrwt>
<totfact> 0.21050809E+05</totfact>
</mgrwt>
</event>
<event>
 3      1 +4.2044000e+04 9.11880000e+01 7.54677100e-03 1.30000000e-01
       -2 -1    0    0    0  501 -0.0000000000e+00 +0.0000000000e+00 +4.9292453678e+01 4.9292453678e+01 0.0000000000e+00 0.0000e+00 1.0000e+00
        2 -1    0    0  501    0 +0.0000000000e+00 -0.0000000000e+00 -4.2173044369e+01 4.2173044369e+01 0.0000000000e+00 0.0000e+00 -1.0000e+00
       23  1    1    2    0    0 +0.0000000000e+00 -0.0000000000e+00 +7.1194093093e+00 9.1465498047e+01 9.1188000000e+01 0.0000e+00 1.0000e+00
<mgrwt>
<rscale>  0 0.91188000E+02</rscale>
<asrwt>0</asrwt>
<pdfrwt beam="2">  1        2 0.64881607E-02 0.91188000E+02</pdfrwt>
<pdfrwt beam="1">  1       -2 0.75834544E-02 0.91188000E+02</pdfrwt>
<totfact> 0.96669206E+04</totfact>
</mgrwt>
</event>
<event>
 3      1 +4.2044000e+04 9.11880000e+01 7.54677100e-03 1.30000000e-01
        1 -1    0    0  501    0 +0.0000000000e+00 +0.0000000000e+00 +6.4198365104e+01 6.4198365104e+01 0.0000000000e+00 0.0000e+00 -1.0000e+00
       -1 -1    0    0    0  501 -0.0000000000e+00 -0.0000000000e+00 -3.2381086849e+01 3.2381086849e+01 0.0000000000e+00 0.0000e+00 1.0000e+00
       23  1    1    2    0    0 +0.0000000000e+00 +0.0000000000e+00 +3.1817278255e+01 9.6579451953e+01 9.1188000000e+01 0.0000e+00 -1.0000e+00
<mgrwt>
<rscale>  0 0.91188000E+02</rscale>
<asrwt>0</asrwt>
<pdfrwt beam="1">  1        1 0.98766716E-02 0.91188000E+02</pdfrwt>
<pdfrwt beam="2">  1       -1 0.49817057E-02 0.91188000E+02</pdfrwt>
<totfact> 0.97333348E+04</totfact>
</mgrwt>
</event>
<event>
 3      1 +4.2044000e+04 9.11880000e+01 7.54677100e-03 1.30000000e-01
       -1 -1    0    0    0  501 -0.0000000000e+00 +0.0000000000e+00 +1.8687903737e+01 1.8687903737e+01 0.0000000000e+00 0.0000e+00 1.0000e+00
        1 -1    0    0  501    0 +0.0000000000e+00 -0.0000000000e+00 -1.1123841739e+02 1.1123841739e+02 0.0000000000e+00 0.0000e+00 -1.0000e+00
       23  1    1    2    0    0 +0.0000000000e+00 -0.0000000000e+00 -9.2550513653e+01 1.2992632113e+02 9.1188000000e+01 0.0000e+00 1.0000e+00
<mgrwt>
<rscale>  0 0.91188000E+02</rscale>
<asrwt>0</asrwt>
<pdfrwt beam="2">  1        1 0.17113603E-01 0.91188000E+02</pdfrwt>
<pdfrwt beam="1">  1       -1 0.28750621E-02 0.91188000E+02</pdfrwt>
<totfact> 0.10630683E+05</totfact>
</mgrwt>
</event>
<event>
 3      1 +4.2044000e+04 9.11880000e+01 7.54677100e-03 1.30000000e-01
       -2 -1    0    0    0  501 -0.0000000000e+00 +0.0000000000e+00 +6.0492119774e+01 6.0492119774e+01 0.0000000000e+00 0.0000e+00 1.0000e+00
        2 -1    0    0  501    0 +0.0000000000e+00 -0.0000000000e+00 -3.4365018845e+01 3.4365018845e+01 0.0000000000e+00 0.0000e+00 -1.0000e+00
       23  1    1    2    0    0 +0.0000000000e+00 -0.0000000000e+00 +2.6127100929e+01 9.4857138619e+01 9.1188000000e+01 0.0000e+00 1.0000e+00
<mgrwt>
<rscale>  0 0.91188000E+02</rscale>
<asrwt>0</asrwt>
<pdfrwt beam="2">  1        2 0.52869260E-02 0.91188000E+02</pdfrwt>
<pdfrwt beam="1">  1       -2 0.93064799E-02 0.91188000E+02</pdfrwt>
<totfact> 0.91664716E+04</totfact>
</mgrwt>
</event>
<event>
 3      1 +4.2044000e+04 9.11880000e+01 7.54677100e-03 1.30000000e-01
       -2 -1    0    0    0  501 -0.0000000000e+00 +0.0000000000e+00 +2.8886204563e+02 2.8886204563e+02 0.0000000000e+00 0.0000e+00 -1.0000e+00
        2 -1    0    0  501    0 +0.0000000000e+00 -0.0000000000e+00 -7.1965592831e+00 7.1965592831e+00 0.0000000000e+00 0.0000e+00 1.0000e+00
       23  1    1    2    0    0 +0.0000000000e+00 -0.0000000000e+00 +2.8166548635e+02 2.9605860491e+02 9.1188000000e+01 0.0000e+00 -1.0000e+00
<mgrwt>
<rscale>  0 0.91188000E+02</rscale>
<asrwt>0</asrwt>
<pdfrwt beam="2">  1        2 0.11071632E-02 0.91188000E+02</pdfrwt>
<pdfrwt beam="1">  1       -2 0.44440306E-01 0.91188000E+02</pdfrwt>
<totfact> 0.52067970E+04</totfact>
</mgrwt>
</event>
<event>
 3      1 +4.2044000e+04 9.11880000e+01 7.54677100e-03 1.30000000e-01
       -2 -1    0    0    0  501 -0.0000000000e+00 +0.0000000000e+00 +1.0466544797e+02 1.0466544797e+02 0.0000000000e+00 0.0000e+00 1.0000e+00
        2 -1    0    0  501    0 +0.0000000000e+00 -0.0000000000e+00 -1.9861500393e+01 1.9861500393e+01 0.0000000000e+00 0.0000e+00 -1.0000e+00
       23  1    1    2    0    0 +0.0000000000e+00 -0.0000000000e+00 +8.4803947580e+01 1.2452694837e+02 9.1188000000e+01 0.0000e+00 1.0000e+00
<mgrwt>
<rscale>  0 0.91188000E+02</rscale>
<asrwt>0</asrwt>
<pdfrwt beam="2">  1        2 0.30556155E-02 0.91188000E+02</pdfrwt>
<pdfrwt beam="1">  1       -2 0.16102376E-01 0.91188000E+02</pdfrwt>
<totfact> 0.78693876E+04</totfact>
</mgrwt>
</event>
<event>
 3      1 +4.2044000e+04 9.11880000e+01 7.54677100e-03 1.30000000e-01
       -3 -1    0    0    0  501 -0.0000000000e+00 +0.0000000000e+00 +9.3355916917e+01 9.3355916917e+01 0.0000000000e+00 0.0000e+00 1.0000e+00
        3 -1    0    0  501    0 +0.0000000000e+00 -0.0000000000e+00 -2.2267606646e+01 2.2267606646e+01 0.0000000000e+00 0.0000e+00 -1.0000e+00
       23  1    1    2    0    0 +0.0000000000e+00 -0.0000000000e+00 +7.1088310271e+01 1.1562352356e+02 9.1188000000e+01 0.0000e+00 1.0000e+00
<mgrwt>
<rscale>  0 0.91188000E+02</rscale>
<asrwt>0</asrwt>
<pdfrwt beam="2">  1        3 0.34257857E-02 0.91188000E+02</pdfrwt>
<pdfrwt beam="1">  1       -3 0.14362449E-01 0.91188000E+02</pdfrwt>
<totfact> 0.33538876E+04</totfact>
</mgrwt>
</event>
<event>
 3      1 +4.2044000e+04 9.11880000e+01 7.54677100e-03 1.30000000e-01
        2 -1    0    0  501    0 +0.0000000000e+00 +0.0000000000e+00 +2.6663581193e+02 2.6663581193e+02 0.0000000000e+00 0.0000e+00 -1.0000e+00
       -2 -1    0    0    0  501 -0.0000000000e+00 -0.0000000000e+00 -7.7964502254e+00 7.7964502254e+00 0.0000000000e+00 0.0000e+00 1.0000e+00
       23  1    1    2    0    0 +0.0000000000e+00 +0.0000000000e+00 +2.5883936170e+02 2.7443226215e+02 9.1188000000e+01 0.0000e+00 -1.0000e+00
<mgrwt>
<rscale>  0 0.91188000E+02</rscale>
<asrwt>0</asrwt>
<pdfrwt beam="1">  1        2 0.41020887E-01 0.91188000E+02</pdfrwt>
<pdfrwt beam="2">  1       -2 0.11994541E-02 0.91188000E+02</pdfrwt>
<totfact> 0.17187398E+05</totfact>
</mgrwt>
</event>
<event>
 3      1 +4.2044000e+04 9.11880000e+01 7.54677100e-03 1.30000000e-01
        2 -1    0    0  501    0 +0.0000000000e+00 +0.0000000000e+00 +1.9412888241e+03 1.9412888241e+03 0.0000000000e+00 0.0000e+00 -1.0000e+00
       -2 -1    0    0    0  501 -0.0000000000e+00 -0.0000000000e+00 -1.0708416029e+00 1.0708416029e+00 0.0000000000e+00 0.0000e+00 1.0000e+00
       23  1    1    2    0    0 +0.0000000000e+00 +0.0000000000e+00 +1.9402179825e+03 1.9423596657e+03 9.1188000000e+01 0.0000e+00 -1.0000e+00
<mgrwt>
<rscale>  0 0.91188000E+02</rscale>
<asrwt>0</asrwt>
<pdfrwt beam="1">  1        2 0.29865700E+00 0.91188000E+02</pdfrwt>
<pdfrwt beam="2">  1       -2 0.16474642E-03 0.91188000E+02</pdfrwt>
<totfact> 0.20206937E+05</totfact>
</mgrwt>
</event>
<event>
 3      1 +4.2044000e+04 9.11880000e+01 7.54677100e-03 1.30000000e-01
        2 -1    0    0  501    0 +0.0000000000e+00 +0.0000000000e+00 +2.8123133820e+02 2.8123133820e+02 0.0000000000e+00 0.0000e+00 1.0000e+00
       -2 -1    0    0    0  501 -0.0000000000e+00 -0.0000000000e+00 -7.3918249983e+00 7.3918249983e+00 0.0000000000e+00 0.0000e+00 -1.0000e+00
       23  1    1    2    0    0 +0.0000000000e+00 +0.0000000000e+00 +2.7383951320e+02 2.8862316320e+02 9.1188000000e+01 0.0000e+00 1.0000e+00
<mgrwt>
<rscale>  0 0.91188000E+02</rscale>
<asrwt>0</asrwt>
<pdfrwt beam="1">  1        2 0.43266351E-01 0.91188000E+02</pdfrwt>
<pdfrwt beam="2">  1       -2 0.11372041E-02 0.91188000E+02</pdfrwt>
<totfact> 0.17532663E+05</totfact>
</mgrwt>
</event>
<event>
 3      1 +4.2044000e+04 9.11880000e+01 7.54677100e-03 1.30000000e-01
       -1 -1    0    0    0  501 -0.0000000000e+00 +0.0000000000e+00 +1.4786285452e+00 1.4786285452e+00 0.0000000000e+00 0.0000e+00 1.0000e+00
        1 -1    0    0  501    0 +0.0000000000e+00 -0.0000000000e+00 -1.4059060626e+03 1.4059060626e+03 0.0000000000e+00 0.0000e+00 -1.0000e+00
       23  1    1    2    0    0 +0.0000000000e+00 -0.0000000000e+00 -1.4044274340e+03 1.4073846911e+03 9.1188000000e+01 0.0000e+00 1.0000e+00
<mgrwt>
<rscale>  0 0.91188000E+02</rscale>
<asrwt>0</asrwt>
<pdfrwt beam="2">  1        1 0.21629373E+00 0.91188000E+02</pdfrwt>
<pdfrwt beam="1">  1       -1 0.22748080E-03 0.91188000E+02</pdfrwt>
<totfact> 0.11605166E+05</totfact>
</mgrwt>
</event>
<event>
 3      1 +4.2044000e+04 9.11880000e+01 7.54677100e-03 1.30000000e-01
        1 -1    0    0  501    0 +0.0000000000e+00 +0.0000000000e+00 +1.1545628941e+03 1.1545628941e+03 0.0000000000e+00 0.0000e+00 -1.0000e+00
       -1 -1    0    0    0  501 -0.0000000000e+00 -0.0000000000e+00 -1.8005193539e+00 1.8005193539e+00 0.0000000000e+00 0.0000e+00 1.0000e+00
       23  1    1    2    0    0 +0.0000000000e+00 +0.0000000000e+00 +1.1527623747e+03 1.1563634134e+03 9.1188000000e+01 0.0000e+00 -1.0000e+00
<mgrwt>
<rscale>  0 0.91188000E+02</rscale>
<asrwt>0</asrwt>
<pdfrwt beam="1">  1        1 0.17762447E+00 0.91188000E+02</pdfrwt>
<pdfrwt beam="2">  1       -1 0.27700390E-03 0.91188000E+02</pdfrwt>
<totfact> 0.12947005E+05</totfact>
</mgrwt>
</event>
<event>
 3      1 +4.2044000e+04 9.11880000e+01 7.54677100e-03 1.30000000e-01
       -1 -1    0    0    0  501 -0.0000000000e+00 +0.0000000000e+00 +2.4329343339e+00 2.4329343339e+00 0.0000000000e+00 0.0000e+00 1.0000e+00
        1 -1    0    0  501    0 +0.0000000000e+00 -0.0000000000e+00 -8.5444675058e+02 8.5444675058e+02 0.0000000000e+00 0.0000e+00 -1.0000e+00
       23  1    1    2    0    0 +0.0000000000e+00 -0.0000000000e+00 -8.5201381625e+02 8.5687968491e+02 9.1188000000e+01 0.0000e+00 1.0000e+00
<mgrwt>
<rscale>  0 0.91188000E+02</rscale>
<asrwt>0</asrwt>
<pdfrwt beam="2">  1        1 0.13145315E+00 0.91188000E+02</pdfrwt>
<pdfrwt beam="1">  1       -1 0.37429815E-03 0.91188000E+02</pdfrwt>
<totfact> 0.14023750E+05</totfact>
</mgrwt>
</event>
<event>
 3      1 +4.2044000e+04 9.11880000e+01 7.54677100e-03 1.30000000e-01
        2 -1    0    0  501    0 +0.0000000000e+00 +0.0000000000e+00 +3.0851002260e+02 3.0851002260e+02 0.0000000000e+00 0.0000e+00 -1.0000e+00
       -2 -1    0    0    0  501 -0.0000000000e+00 -0.0000000000e+00 -6.7382343642e+00 6.7382343642e+00 0.0000000000e+00 0.0000e+00 1.0000e+00
       23  1    1    2    0    0 +0.0000000000e+00 +0.0000000000e+00 +3.0177178824e+02 3.1524825697e+02 9.1188000000e+01 0.0000e+00 -1.0000e+00
<mgrwt>
<rscale>  0 0.91188000E+02</rscale>
<asrwt>0</asrwt>
<pdfrwt beam="1">  1        2 0.47463070E-01 0.91188000E+02</pdfrwt>
<pdfrwt beam="2">  1       -2 0.10366517E-02 0.91188000E+02</pdfrwt>
<totfact> 0.18148033E+05</totfact>
</mgrwt>
</event>
<event>
 3      1 +4.2044000e+04 9.11880000e+01 7.54677100e-03 1.30000000e-01
       -1 -1    0    0    0  501 -0.0000000000e+00 +0.0000000000e+00 +1.9533939847e+00 1.9533939847e+00 0.0000000000e+00 0.0000e+00 1.0000e+00
        1 -1    0    0  501    0 +0.0000000000e+00 -0.0000000000e+00 -1.0642056094e+03 1.0642056094e+03 0.0000000000e+00 0.0000e+00 -1.0000e+00
       23  1    1    2    0    0 +0.0000000000e+00 -0.0000000000e+00 -1.0622522154e+03 1.0661590034e+03 9.1188000000e+01 0.0000e+00 1.0000e+00
<mgrwt>
<rscale>  0 0.91188000E+02</rscale>
<asrwt>0</asrwt>
<pdfrwt beam="2">  1        1 0.16372365E+00 0.91188000E+02</pdfrwt>
<pdfrwt beam="1">  1       -1 0.30052268E-03 0.91188000E+02</pdfrwt>
<totfact> 0.13348162E+05</totfact>
</mgrwt>
</event>
<event>
 3      1 +4.2044000e+04 9.11880000e+01 7.54677100e-03 1.30000000e-01
       -2 -1    0    0    0  501 -0.0000000000e+00 +0.0000000000e+00 +3.9527198176e+02 3.9527198176e+02 0.0000000000e+00 0.0000e+00 1.0000e+00
        2 -1    0    0  501    0 +0.0000000000e+00 -0.0000000000e+00 -5.2591960268e+00 5.2591960268e+00 0.0000000000e+00 0.0000e+00 -1.0000e+00
       23  1    1    2    0    0 +0.0000000000e+00 -0.0000000000e+00 +3.9001278573e+02 4.0053117779e+02 9.1188000000e+01 0.0000e+00 1.0000e+00
<mgrwt>
<rscale>  0 0.91188000E+02</rscale>
<asrwt>0</asrwt>
<pdfrwt beam="2">  1        2 0.80910740E-03 0.91188000E+02</pdfrwt>
<pdfrwt beam="1">  1       -2 0.60811050E-01 0.91188000E+02</pdfrwt>
<totfact> 0.43022280E+04</totfact>
</mgrwt>
</event>
<event>
 3      1 +4.2044000e+04 9.11880000e+01 7.54677100e-03 1.30000000e-01
       -1 -1    0    0    0  501 -0.0000000000e+00 +0.0000000000e+00 +4.8656005174e+00 4.8656005174e+00 0.0000000000e+00 0.0000e+00 1.0000e+00
        1 -1    0    0  501    0 +0.0000000000e+00 -0.0000000000e+00 -4.2724692021e+02 4.2724692021e+02 0.0000000000e+00 0.0000e+00 -1.0000e+00
       23  1    1    2    0    0 +0.0000000000e+00 -0.0000000000e+00 -4.2238131969e+02 4.3211252072e+02 9.1188000000e+01 0.0000e+00 1.0000e+00
<mgrwt>
<rscale>  0 0.91188000E+02</rscale>
<asrwt>0</asrwt>
<pdfrwt beam="2">  1        1 0.65730314E-01 0.91188000E+02</pdfrwt>
<pdfrwt beam="1">  1       -1 0.74855372E-03 0.91188000E+02</pdfrwt>
<totfact> 0.13626309E+05</totfact>
</mgrwt>
</event>
<event>
 3      1 +4.2044000e+04 9.11880000e+01 7.54677100e-03 1.30000000e-01
       -2 -1    0    0    0  501 -0.0000000000e+00 +0.0000000000e+00 +3.0622460999e+00 3.0622460999e+00 0.0000000000e+00 0.0000e+00 1.0000e+00
        2 -1    0    0  501    0 +0.0000000000e+00 -0.0000000000e+00 -6.7885230911e+02 6.7885230911e+02 0.0000000000e+00 0.0000e+00 -1.0000e+00
       23  1    1    2    0    0 +0.0000000000e+00 -0.0000000000e+00 -6.7579006301e+02 6.8191455521e+02 9.1188000000e+01 0.0000e+00 1.0000e+00
<mgrwt>
<rscale>  0 0.91188000E+02</rscale>
<asrwt>0</asrwt>
<pdfrwt beam="2">  1        2 0.10443896E+00 0.91188000E+02</pdfrwt>
<pdfrwt beam="1">  1       -2 0.47111416E-03 0.91188000E+02</pdfrwt>
<totfact> 0.23533799E+05</totfact>
</mgrwt>
</event>
<event>
 3      1 +4.2044000e+04 9.11880000e+01 7.54677100e-03 1.30000000e-01
        1 -1    0    0  501    0 +0.0000000000e+00 +0.0000000000e+00 +1.9303543867e+01 1.9303543867e+01 0.0000000000e+00 0.0000e+00 -1.0000e+00
       -1 -1    0    0    0  501 -0.0000000000e+00 -0.0000000000e+00 -1.0769073546e+02 1.0769073546e+02 0.0000000000e+00 0.0000e+00 1.0000e+00
       23  1    1    2    0    0 +0.0000000000e+00 +0.0000000000e+00 -8.8387191590e+01 1.2699427932e+02 9.1188000000e+01 0.0000e+00 -1.0000e+00
<mgrwt>
<rscale>  0 0.91188000E+02</rscale>
<asrwt>0</asrwt>
<pdfrwt beam="1">  1        1 0.29697759E-02 0.91188000E+02</pdfrwt>
<pdfrwt beam="2">  1       -1 0.16567806E-01 0.91188000E+02</pdfrwt>
<totfact> 0.80211526E+04</totfact>
</mgrwt>
</event>
<event>
 3      1 +4.2044000e+04 9.11880000e+01 7.54677100e-03 1.30000000e-01
        2 -1    0    0  501    0 +0.0000000000e+00 +0.0000000000e+00 +9.4622185090e+02 9.4622185090e+02 0.0000000000e+00 0.0000e+00 -1.0000e+00
       -2 -1    0    0    0  501 -0.0000000000e+00 -0.0000000000e+00 -2.1969613511e+00 2.1969613511e+00 0.0000000000e+00 0.0000e+00 1.0000e+00
       23  1    1    2    0    0 +0.0000000000e+00 +0.0000000000e+00 +9.4402488954e+02 9.4841881225e+02 9.1188000000e+01 0.0000e+00 -1.0000e+00
<mgrwt>
<rscale>  0 0.91188000E+02</rscale>
<asrwt>0</asrwt>
<pdfrwt beam="1">  1        2 0.14557227E+00 0.91188000E+02</pdfrwt>
<pdfrwt beam="2">  1       -2 0.33799481E-03 0.91188000E+02</pdfrwt>
<totfact> 0.24906918E+05</totfact>
</mgrwt>
</event>
<event>
 3      1 +4.2044000e+04 9.11880000e+01 7.54677100e-03 1.30000000e-01
        2 -1    0    0  501    0 +0.0000000000e+00 +0.0000000000e+00 +4.4533642919e+01 4.4533642919e+01 0.0000000000e+00 0.0000e+00 -1.0000e+00
       -2 -1    0    0    0  501 -0.0000000000e+00 -0.0000000000e+00 -4.6679604446e+01 4.6679604446e+01 0.0000000000e+00 0.0000e+00 1.0000e+00
       23  1    1    2    0    0 +0.0000000000e+00 +0.0000000000e+00 -2.1459615276e+00 9.1213247365e+01 9.1188000000e+01 0.0000e+00 -1.0000e+00
<mgrwt>
<rscale>  0 0.91188000E+02</rscale>
<asrwt>0</asrwt>
<pdfrwt beam="1">  1        2 0.68513297E-02 0.91188000E+02</pdfrwt>
<pdfrwt beam="2">  1       -2 0.71814776E-02 0.91188000E+02</pdfrwt>
<totfact> 0.98042698E+04</totfact>
</mgrwt>
</event>
<event>
 3      1 +4.2044000e+04 9.11880000e+01 7.54677100e-03 1.30000000e-01
       -1 -1    0    0    0  501 -0.0000000000e+00 +0.0000000000e+00 +1.4258711800e+00 1.4258711800e+00 0.0000000000e+00 0.0000e+00 1.0000e+00
        1 -1    0    0  501    0 +0.0000000000e+00 -0.0000000000e+00 -1.4579247166e+03 1.4579247166e+03 0.0000000000e+00 0.0000e+00 -1.0000e+00
       23  1    1    2    0    0 +0.0000000000e+00 -0.0000000000e+00 -1.4564988455e+03 1.4593505878e+03 9.1188000000e+01 0.0000e+00 1.0000e+00
<mgrwt>
<rscale>  0 0.91188000E+02</rscale>
<asrwt>0</asrwt>
<pdfrwt beam="2">  1        1 0.22429494E+00 0.91188000E+02</pdfrwt>
<pdfrwt beam="1">  1       -1 0.21936594E-03 0.91188000E+02</pdfrwt>
<totfact> 0.11299380E+05</totfact>
</mgrwt>
</event>
<event>
 3      1 +4.2044000e+04 9.11880000e+01 7.54677100e-03 1.30000000e-01
       -1 -1    0    0    0  501 -0.0000000000e+00 +0.0000000000e+00 +2.7152971204e+02 2.7152971204e+02 0.0000000000e+00 0.0000e+00 1.0000e+00
        1 -1    0    0  501    0 +0.0000000000e+00 -0.0000000000e+00 -7.6559313543e+00 7.6559313543e+00 0.0000000000e+00 0.0000e+00 -1.0000e+00
       23  1    1    2    0    0 +0.0000000000e+00 -0.0000000000e+00 +2.6387378068e+02 2.7918564339e+02 9.1188000000e+01 0.0000e+00 1.0000e+00
<mgrwt>
<rscale>  0 0.91188000E+02</rscale>
<asrwt>0</asrwt>
<pdfrwt beam="2">  1        1 0.11778358E-02 0.91188000E+02</pdfrwt>
<pdfrwt beam="1">  1       -1 0.41773794E-01 0.91188000E+02</pdfrwt>
<totfact> 0.62894017E+04</totfact>
</mgrwt>
</event>
<event>
 3      1 +4.2044000e+04 9.11880000e+01 7.54677100e-03 1.30000000e-01
       -1 -1    0    0    0  501 -0.0000000000e+00 +0.0000000000e+00 +3.9259064797e+01 3.9259064797e+01 0.0000000000e+00 0.0000e+00 1.0000e+00
        1 -1    0    0  501    0 +0.0000000000e+00 -0.0000000000e+00 -5.2951155274e+01 5.2951155274e+01 0.0000000000e+00 0.0000e+00 -1.0000e+00
       23  1    1    2    0    0 +0.0000000000e+00 -0.0000000000e+00 -1.3692090477e+01 9.2210220072e+01 9.1188000000e+01 0.0000e+00 1.0000e+00
<mgrwt>
<rscale>  0 0.91188000E+02</rscale>
<asrwt>0</asrwt>
<pdfrwt beam="2">  1        1 0.81463316E-02 0.91188000E+02</pdfrwt>
<pdfrwt beam="1">  1       -1 0.60398561E-02 0.91188000E+02</pdfrwt>
<totfact> 0.94542145E+04</totfact>
</mgrwt>
</event>
<event>
 3      1 +4.2044000e+04 9.11880000e+01 7.54677100e-03 1.30000000e-01
       -1 -1    0    0    0  501 -0.0000000000e+00 +0.0000000000e+00 +1.3717576381e+00 1.3717576381e+00 0.0000000000e+00 0.0000e+00 -1.0000e+00
        1 -1    0    0  501    0 +0.0000000000e+00 -0.0000000000e+00 -1.5154374054e+03 1.5154374054e+03 0.0000000000e+00 0.0000e+00 1.0000e+00
       23  1    1    2    0    0 +0.0000000000e+00 -0.0000000000e+00 -1.5140656478e+03 1.5168091631e+03 9.1188000000e+01 0.0000e+00 -1.0000e+00
<mgrwt>
<rscale>  0 0.91188000E+02</rscale>
<asrwt>0</asrwt>
<pdfrwt beam="2">  1        1 0.23314483E+00 0.91188000E+02</pdfrwt>
<pdfrwt beam="1">  1       -1 0.21103908E-03 0.91188000E+02</pdfrwt>
<totfact> 0.10954097E+05</totfact>
</mgrwt>
</event>
<event>
 3      1 +4.2044000e+04 9.11880000e+01 7.54677100e-03 1.30000000e-01
       -1 -1    0    0    0  501 -0.0000000000e+00 +0.0000000000e+00 +7.6102910606e-01 7.6102910606e-01 0.0000000000e+00 0.0000e+00 1.0000e+00
        1 -1    0    0  501    0 +0.0000000000e+00 -0.0000000000e+00 -2.7315812489e+03 2.7315812489e+03 0.0000000000e+00 0.0000e+00 -1.0000e+00
       23  1    1    2    0    0 +0.0000000000e+00 -0.0000000000e+00 -2.7308202198e+03 2.7323422780e+03 9.1188000000e+01 0.0000e+00 1.0000e+00
<mgrwt>
<rscale>  0 0.91188000E+02</rscale>
<asrwt>0</asrwt>
<pdfrwt beam="2">  1        1 0.42025048E+00 0.91188000E+02</pdfrwt>
<pdfrwt beam="1">  1       -1 0.11707939E-03 0.91188000E+02</pdfrwt>
<totfact> 0.41753509E+04</totfact>
</mgrwt>
</event>
<event>
 3      1 +4.2044000e+04 9.11880000e+01 7.54677100e-03 1.30000000e-01
        1 -1    0    0  501    0 +0.0000000000e+00 +0.0000000000e+00 +1.9709053571e+03 1.9709053571e+03 0.0000000000e+00 0.0000e+00 -1.0000e+00
       -1 -1    0    0    0  501 -0.0000000000e+00 -0.0000000000e+00 -1.0547502083e+00 1.0547502083e+00 0.0000000000e+00 0.0000e+00 1.0000e+00
       23  1    1    2    0    0 +0.0000000000e+00 +0.0000000000e+00 +1.9698506069e+03 1.9719601073e+03 9.1188000000e+01 0.0000e+00 -1.0000e+00
<mgrwt>
<rscale>  0 0.91188000E+02</rscale>
<asrwt>0</asrwt>
<pdfrwt beam="1">  1        1 0.30321326E+00 0.91188000E+02</pdfrwt>
<pdfrwt beam="2">  1       -1 0.16227084E-03 0.91188000E+02</pdfrwt>
<totfact> 0.81462728E+04</totfact>
</mgrwt>
</event>
<event>
 3      1 +4.2044000e+04 9.11880000e+01 7.54677100e-03 1.30000000e-01
       -2 -1    0    0    0  501 -0.0000000000e+00 +0.0000000000e+00 +2.4025018249e+00 2.4025018249e+00 0.0000000000e+00 0.0000e+00 -1.0000e+00
        2 -1    0    0  501    0 +0.0000000000e+00 -0.0000000000e+00 -8.6527003410e+02 8.6527003410e+02 0.0000000000e+00 0.0000e+00 1.0000e+00
       23  1    1    2    0    0 +0.0000000000e+00 -0.0000000000e+00 -8.6286753228e+02 8.6767253593e+02 9.1188000000e+01 0.0000e+00 -1.0000e+00
<mgrwt>
<rscale>  0 0.91188000E+02</rscale>
<asrwt>0</asrwt>
<pdfrwt beam="2">  1        2 0.13311839E+00 0.91188000E+02</pdfrwt>
<pdfrwt beam="1">  1       -2 0.36961589E-03 0.91188000E+02</pdfrwt>
<totfact> 0.24665665E+05</totfact>
</mgrwt>
</event>
<event>
 3      1 +4.2044000e+04 9.11880000e+01 7.54677100e-03 1.30000000e-01
        1 -1    0    0  501    0 +0.0000000000e+00 +0.0000000000e+00 +9.4953791178e+01 9.4953791178e+01 0.0000000000e+00 0.0000e+00 -1.0000e+00
       -1 -1    0    0    0  501 -0.0000000000e+00 -0.0000000000e+00 -2.1892889270e+01 2.1892889270e+01 0.0000000000e+00 0.0000e+00 1.0000e+00
       23  1    1    2    0    0 +0.0000000000e+00 +0.0000000000e+00 +7.3060901908e+01 1.1684668045e+02 9.1188000000e+01 0.0000e+00 -1.0000e+00
<mgrwt>
<rscale>  0 0.91188000E+02</rscale>
<asrwt>0</asrwt>
<pdfrwt beam="1">  1        1 0.14608275E-01 0.91188000E+02</pdfrwt>
<pdfrwt beam="2">  1       -1 0.33681369E-02 0.91188000E+02</pdfrwt>
<totfact> 0.10352727E+05</totfact>
</mgrwt>
</event>
<event>
 3      1 +4.2044000e+04 9.11880000e+01 7.54677100e-03 1.30000000e-01
        1 -1    0    0  501    0 +0.0000000000e+00 +0.0000000000e+00 +3.0487885834e+02 3.0487885834e+02 0.0000000000e+00 0.0000e+00 -1.0000e+00
       -1 -1    0    0    0  501 -0.0000000000e+00 -0.0000000000e+00 -6.8184879965e+00 6.8184879965e+00 0.0000000000e+00 0.0000e+00 1.0000e+00
       23  1    1    2    0    0 +0.0000000000e+00 +0.0000000000e+00 +2.9806037035e+02 3.1169734634e+02 9.1188000000e+01 0.0000e+00 -1.0000e+00
<mgrwt>
<rscale>  0 0.91188000E+02</rscale>
<asrwt>0</asrwt>
<pdfrwt beam="1">  1        1 0.46904429E-01 0.91188000E+02</pdfrwt>
<pdfrwt beam="2">  1       -1 0.10489984E-02 0.91188000E+02</pdfrwt>
<totfact> 0.12847363E+05</totfact>
</mgrwt>
</event>
<event>
 3      1 +4.2044000e+04 9.11880000e+01 7.54677100e-03 1.30000000e-01
       -2 -1    0    0    0  501 -0.0000000000e+00 +0.0000000000e+00 +1.1846437046e+00 1.1846437046e+00 0.0000000000e+00 0.0000e+00 -1.0000e+00
        2 -1    0    0  501    0 +0.0000000000e+00 -0.0000000000e+00 -1.7548000533e+03 1.7548000533e+03 0.0000000000e+00 0.0000e+00 1.0000e+00
       23  1    1    2    0    0 +0.0000000000e+00 -0.0000000000e+00 -1.7536154096e+03 1.7559846970e+03 9.1188000000e+01 0.0000e+00 -1.0000e+00
<mgrwt>
<rscale>  0 0.91188000E+02</rscale>
<asrwt>0</asrwt>
<pdfrwt beam="2">  1        2 0.26996955E+00 0.91188000E+02</pdfrwt>
<pdfrwt beam="1">  1       -2 0.18225267E-03 0.91188000E+02</pdfrwt>
<totfact> 0.21793512E+05</totfact>
</mgrwt>
</event>
<event>
 3      1 +4.2044000e+04 9.11880000e+01 7.54677100e-03 1.30000000e-01
        2 -1    0    0  501    0 +0.0000000000e+00 +0.0000000000e+00 +1.3061822144e+01 1.3061822144e+01 0.0000000000e+00 0.0000e+00 1.0000e+00
       -2 -1    0    0    0  501 -0.0000000000e+00 -0.0000000000e+00 -1.5915182530e+02 1.5915182530e+02 0.0000000000e+00 0.0000e+00 -1.0000e+00
       23  1    1    2    0    0 +0.0000000000e+00 +0.0000000000e+00 -1.4609000315e+02 1.7221364744e+02 9.1188000000e+01 0.0000e+00 1.0000e+00
<mgrwt>
<rscale>  0 0.91188000E+02</rscale>
<asrwt>0</asrwt>
<pdfrwt beam="1">  1        2 0.20095110E-02 0.91188000E+02</pdfrwt>
<pdfrwt beam="2">  1       -2 0.24484897E-01 0.91188000E+02</pdfrwt>
<totfact> 0.68320569E+04</totfact>
</mgrwt>
</event>
<event>
 3      1 +4.2044000e+04 9.11880000e+01 7.54677100e-03 1.30000000e-01
       -1 -1    0    0    0  501 -0.0000000000e+00 +0.0000000000e+00 +4.7654773507e+01 4.7654773507e+01 0.0000000000e+00 0.0000e+00 1.0000e+00
        1 -1    0    0  501    0 +0.0000000000e+00 -0.0000000000e+00 -4.3622342171e+01 4.3622342171e+01 0.0000000000e+00 0.0000e+00 -1.0000e+00
       23  1    1    2    0    0 +0.0000000000e+00 -0.0000000000e+00 +4.0324313352e+00 9.1277115678e+01 9.1188000000e+01 0.0000e+00 1.0000e+00
<mgrwt>
<rscale>  0 0.91188000E+02</rscale>
<asrwt>0</asrwt>
<pdfrwt beam="2">  1        1 0.67111296E-02 0.91188000E+02</pdfrwt>
<pdfrwt beam="1">  1       -1 0.73315036E-02 0.91188000E+02</pdfrwt>
<totfact> 0.91829005E+04</totfact>
</mgrwt>
</event>
<event>
 3      1 +4.2044000e+04 9.11880000e+01 7.54677100e-03 1.30000000e-01
        1 -1    0    0  501    0 +0.0000000000e+00 +0.0000000000e+00 +2.3964342815e+00 2.3964342815e+00 0.0000000000e+00 0.0000e+00 -1.0000e+00
       -1 -1    0    0    0  501 -0.0000000000e+00 -0.0000000000e+00 -8.6746081544e+02 8.6746081544e+02 0.0000000000e+00 0.0000e+00 1.0000e+00
       23  1    1    2    0    0 +0.0000000000e+00 +0.0000000000e+00 -8.6506438116e+02 8.6985724972e+02 9.1188000000e+01 0.0000e+00 -1.0000e+00
<mgrwt>
<rscale>  0 0.91188000E+02</rscale>
<asrwt>0</asrwt>
<pdfrwt beam="1">  1        1 0.36868224E-03 0.91188000E+02</pdfrwt>
<pdfrwt beam="2">  1       -1 0.13345550E+00 0.91188000E+02</pdfrwt>
<totfact> 0.30089559E+04</totfact>
</mgrwt>
</event>
<event>
 3      1 +4.2044000e+04 9.11880000e+01 7.54677100e-03 1.30000000e-01
       -4 -1    0    0    0  501 -0.0000000000e+00 +0.0000000000e+00 +7.7643958315e+01 7.7643958315e+01 0.0000000000e+00 0.0000e+00 1.0000e+00
        4 -1    0    0  501    0 +0.0000000000e+00 -0.0000000000e+00 -2.6773658648e+01 2.6773658648e+01 0.0000000000e+00 0.0000e+00 -1.0000e+00
       23  1    1    2    0    0 +0.0000000000e+00 -0.0000000000e+00 +5.0870299668e+01 1.0441761696e+02 9.1188000000e+01 0.0000e+00 1.0000e+00
<mgrwt>
<rscale>  0 0.91188000E+02</rscale>
<asrwt>0</asrwt>
<pdfrwt beam="2">  1        4 0.41190244E-02 0.91188000E+02</pdfrwt>
<pdfrwt beam="1">  1       -4 0.11945224E-01 0.91188000E+02</pdfrwt>
<totfact> 0.26178866E+04</totfact>
</mgrwt>
</event>
<event>
 3      1 +4.2044000e+04 9.11880000e+01 7.54677100e-03 1.30000000e-01
        2 -1    0    0  501    0 +0.0000000000e+00 +0.0000000000e+00 +6.3277562025e+00 6.3277562025e+00 0.0000000000e+00 0.0000e+00 1.0000e+00
       -2 -1    0    0    0  501 -0.0000000000e+00 -0.0000000000e+00 -3.2852290282e+02 3.2852290282e+02 0.0000000000e+00 0.0000e+00 -1.0000e+00
       23  1    1    2    0    0 +0.0000000000e+00 +0.0000000000e+00 -3.2219514662e+02 3.3485065902e+02 9.1188000000e+01 0.0000e+00 1.0000e+00
<mgrwt>
<rscale>  0 0.91188000E+02</rscale>
<asrwt>0</asrwt>
<pdfrwt beam="1">  1        2 0.97350110E-03 0.91188000E+02</pdfrwt>
<pdfrwt beam="2">  1       -2 0.50541978E-01 0.91188000E+02</pdfrwt>
<totfact> 0.48371899E+04</totfact>
</mgrwt>
</event>
<event>
 3      1 +4.2044000e+04 9.11880000e+01 7.54677100e-03 1.30000000e-01
       -2 -1    0    0    0  501 -0.0000000000e+00 +0.0000000000e+00 +7.4775783050e+02 7.4775783050e+02 0.0000000000e+00 0.0000e+00 1.0000e+00
        2 -1    0    0  501    0 +0.0000000000e+00 -0.0000000000e+00 -2.7800616071e+00 2.7800616071e+00 0.0000000000e+00 0.0000e+00 -1.0000e+00
       23  1    1    2    0    0 +0.0000000000e+00 -0.0000000000e+00 +7.4497776889e+02 7.5053789210e+02 9.1188000000e+01 0.0000e+00 1.0000e+00
<mgrwt>
<rscale>  0 0.91188000E+02</rscale>
<asrwt>0</asrwt>
<pdfrwt beam="2">  1        2 0.42770238E-03 0.91188000E+02</pdfrwt>
<pdfrwt beam="1">  1       -2 0.11503951E+00 0.91188000E+02</pdfrwt>
<totfact> 0.25503606E+04</totfact>
</mgrwt>
</event>
<event>
 3      1 +4.2044000e+04 9.11880000e+01 7.54677100e-03 1.30000000e-01
        3 -1    0    0  501    0 +0.0000000000e+00 +0.0000000000e+00 +5.4719963244e+00 5.4719963244e+00 0.0000000000e+00 0.0000e+00 -1.0000e+00
       -3 -1    0    0    0  501 -0.0000000000e+00 -0.0000000000e+00 -3.7990026176e+02 3.7990026176e+02 0.0000000000e+00 0.0000e+00 1.0000e+00
       23  1    1    2    0    0 +0.0000000000e+00 +0.0000000000e+00 -3.7442826544e+02 3.8537225808e+02 9.1188000000e+01 0.0000e+00 -1.0000e+00
<mgrwt>
<rscale>  0 0.91188000E+02</rscale>
<asrwt>0</asrwt>
<pdfrwt beam="1">  1        3 0.84184553E-03 0.91188000E+02</pdfrwt>
<pdfrwt beam="2">  1       -3 0.58446198E-01 0.91188000E+02</pdfrwt>
<totfact> 0.21043457E+04</totfact>
</mgrwt>
</event>
<event>
 3      1 +4.2044000e+04 9.11880000e+01 7.54677100e-03 1.30000000e-01
       -1 -1    0    0    0  501 -0.0000000000e+00 +0.0000000000e+00 +1.2070196005e+00 1.2070196005e+00 0.0000000000e+00 0.0000e+00 1.0000e+00
        1 -1    0    0  501    0 +0.0000000000e+00 -0.0000000000e+00 -1.7222693279e+03 1.7222693279e+03 0.0000000000e+00 0.0000e+00 -1.0000e+00
       23  1    1    2    0    0 +0.0000000000e+00 -0.0000000000e+00 -1.7210623083e+03 1.7234763475e+03 9.1188000000e+01 0.0000e+00 1.0000e+00
<mgrwt>
<rscale>  0 0.91188000E+02</rscale>
<asrwt>0</asrwt>
<pdfrwt beam="2">  1        1 0.26496459E+00 0.91188000E+02</pdfrwt>
<pdfrwt beam="1">  1       -1 0.18569527E-03 0.91188000E+02</pdfrwt>
<totfact> 0.96780759E+04</totfact>
</mgrwt>
</event>
<event>
 3      1 +4.2044000e+04 9.11880000e+01 7.54677100e-03 1.30000000e-01
       -3 -1    0    0    0  501 -0.0000000000e+00 +0.0000000000e+00 +1.0499884162e+02 1.0499884162e+02 0.0000000000e+00 0.0000e+00 1.0000e+00
        3 -1    0    0  501    0 +0.0000000000e+00 -0.0000000000e+00 -1.9798435906e+01 1.9798435906e+01 0.0000000000e+00 0.0000e+00 -1.0000e+00
       23  1    1    2    0    0 +0.0000000000e+00 -0.0000000000e+00 +8.5200405712e+01 1.2479727752e+02 9.1188000000e+01 0.0000e+00 1.0000e+00
<mgrwt>
<rscale>  0 0.91188000E+02</rscale>
<asrwt>0</asrwt>
<pdfrwt beam="2">  1        3 0.30459133E-02 0.91188000E+02</pdfrwt>
<pdfrwt beam="1">  1       -3 0.16153668E-01 0.91188000E+02</pdfrwt>
<totfact> 0.32912107E+04</totfact>
</mgrwt>
</event>
<event>
 3      1 +4.2044000e+04 9.11880000e+01 7.54677100e-03 1.30000000e-01
       -1 -1    0    0    0  501 -0.0000000000e+00 +0.0000000000e+00 +5.0125521871e+02 5.0125521871e+02 0.0000000000e+00 0.0000e+00 1.0000e+00
        1 -1    0    0  501    0 +0.0000000000e+00 -0.0000000000e+00 -4.1472143499e+00 4.1472143499e+00 0.0000000000e+00 0.0000e+00 -1.0000e+00
       23  1    1    2    0    0 +0.0000000000e+00 -0.0000000000e+00 +4.9710800436e+02 5.0540243306e+02 9.1188000000e+01 0.0000e+00 1.0000e+00
<mgrwt>
<rscale>  0 0.91188000E+02</rscale>
<asrwt>0</asrwt>
<pdfrwt beam="2">  1        1 0.63803337E-03 0.91188000E+02</pdfrwt>
<pdfrwt beam="1">  1       -1 0.77116140E-01 0.91188000E+02</pdfrwt>
<totfact> 0.46954693E+04</totfact>
</mgrwt>
</event>
<event>
 3      1 +4.2044000e+04 9.11880000e+01 7.54677100e-03 1.30000000e-01
        1 -1    0    0  501    0 +0.0000000000e+00 +0.0000000000e+00 +1.8230179418e+03 1.8230179418e+03 0.0000000000e+00 0.0000e+00 -1.0000e+00
       -1 -1    0    0    0  501 -0.0000000000e+00 -0.0000000000e+00 -1.1403139751e+00 1.1403139751e+00 0.0000000000e+00 0.0000e+00 1.0000e+00
       23  1    1    2    0    0 +0.0000000000e+00 +0.0000000000e+00 +1.8218776279e+03 1.8241582558e+03 9.1188000000e+01 0.0000e+00 -1.0000e+00
<mgrwt>
<rscale>  0 0.91188000E+02</rscale>
<asrwt>0</asrwt>
<pdfrwt beam="1">  1        1 0.28046197E+00 0.91188000E+02</pdfrwt>
<pdfrwt beam="2">  1       -1 0.17543438E-03 0.91188000E+02</pdfrwt>
<totfact> 0.90521711E+04</totfact>
</mgrwt>
</event>
<event>
 3      1 +4.2044000e+04 9.11880000e+01 7.54677100e-03 1.30000000e-01
        2 -1    0    0  501    0 +0.0000000000e+00 +0.0000000000e+00 +9.4833691571e+01 9.4833691571e+01 0.0000000000e+00 0.0000e+00 -1.0000e+00
       -2 -1    0    0    0  501 -0.0000000000e+00 -0.0000000000e+00 -2.1920614937e+01 2.1920614937e+01 0.0000000000e+00 0.0000e+00 1.0000e+00
       23  1    1    2    0    0 +0.0000000000e+00 +0.0000000000e+00 +7.2913076633e+01 1.1675430651e+02 9.1188000000e+01 0.0000e+00 -1.0000e+00
<mgrwt>
<rscale>  0 0.91188000E+02</rscale>
<asrwt>0</asrwt>
<pdfrwt beam="1">  1        2 0.14589799E-01 0.91188000E+02</pdfrwt>
<pdfrwt beam="2">  1       -2 0.33724023E-02 0.91188000E+02</pdfrwt>
<totfact> 0.12068415E+05</totfact>
</mgrwt>
</event>
<event>
 3      1 +4.2044000e+04 9.11880000e+01 7.54677100e-03 1.30000000e-01
        1 -1    0    0  501    0 +0.0000000000e+00 +0.0000000000e+00 +1.9584558464e+02 1.9584558464e+02 0.0000000000e+00 0.0000e+00 -1.0000e+00
       -1 -1    0    0    0  501 -0.0000000000e+00 -0.0000000000e+00 -1.0614550437e+01 1.0614550437e+01 0.0000000000e+00 0.0000e+00 1.0000e+00
       23  1    1    2    0    0 +0.0000000000e+00 +0.0000000000e+00 +1.8523103421e+02 2.0646013508e+02 9.1188000000e+01 0.0000e+00 -1.0000e+00
<mgrwt>
<rscale>  0 0.91188000E+02</rscale>
<asrwt>0</asrwt>
<pdfrwt beam="1">  1        1 0.30130087E-01 0.91188000E+02</pdfrwt>
<pdfrwt beam="2">  1       -1 0.16330079E-02 0.91188000E+02</pdfrwt>
<totfact> 0.11788675E+05</totfact>
</mgrwt>
</event>
<event>
 3      1 +4.2044000e+04 9.11880000e+01 7.54677100e-03 1.30000000e-01
       -1 -1    0    0    0  501 -0.0000000000e+00 +0.0000000000e+00 +6.0697123232e+00 6.0697123232e+00 0.0000000000e+00 0.0000e+00 1.0000e+00
        1 -1    0    0  501    0 +0.0000000000e+00 -0.0000000000e+00 -3.4248951603e+02 3.4248951603e+02 0.0000000000e+00 0.0000e+00 -1.0000e+00
       23  1    1    2    0    0 +0.0000000000e+00 -0.0000000000e+00 -3.3641980370e+02 3.4855922835e+02 9.1188000000e+01 0.0000e+00 1.0000e+00
<mgrwt>
<rscale>  0 0.91188000E+02</rscale>
<asrwt>0</asrwt>
<pdfrwt beam="2">  1        1 0.52690693E-01 0.91188000E+02</pdfrwt>
<pdfrwt beam="1">  1       -1 0.93380192E-03 0.91188000E+02</pdfrwt>
<totfact> 0.13127702E+05</totfact>
</mgrwt>
</event>
<event>
 3      1 +4.2044000e+04 9.11880000e+01 7.54677100e-03 1.30000000e-01
       -4 -1    0    0    0  501 -0.0000000000e+00 +0.0000000000e+00 +9.1802983738e+00 9.1802983738e+00 0.0000000000e+00 0.0000e+00 -1.0000e+00
        4 -1    0    0  501    0 +0.0000000000e+00 -0.0000000000e+00 -2.2644284002e+02 2.2644284002e+02 0.0000000000e+00 0.0000e+00 1.0000e+00
       23  1    1    2    0    0 +0.0000000000e+00 -0.0000000000e+00 -2.1726254165e+02 2.3562313840e+02 9.1188000000e+01 0.0000e+00 -1.0000e+00
<mgrwt>
<rscale>  0 0.91188000E+02</rscale>
<asrwt>0</asrwt>
<pdfrwt beam="2">  1        4 0.34837359E-01 0.91188000E+02</pdfrwt>
<pdfrwt beam="1">  1       -4 0.14123536E-02 0.91188000E+02</pdfrwt>
<totfact> 0.19978183E+04</totfact>
</mgrwt>
</event>
<event>
 3      1 +4.2044000e+04 9.11880000e+01 7.54677100e-03 1.30000000e-01
        2 -1    0    0  501    0 +0.0000000000e+00 +0.0000000000e+00 +2.7934376592e+01 2.7934376592e+01 0.0000000000e+00 0.0000e+00 1.0000e+00
       -2 -1    0    0    0  501 -0.0000000000e+00 -0.0000000000e+00 -7.4417727889e+01 7.4417727889e+01 0.0000000000e+00 0.0000e+00 -1.0000e+00
       23  1    1    2    0    0 +0.0000000000e+00 +0.0000000000e+00 -4.6483351297e+01 1.0235210448e+02 9.1188000000e+01 0.0000e+00 1.0000e+00
<mgrwt>
<rscale>  0 0.91188000E+02</rscale>
<asrwt>0</asrwt>
<pdfrwt beam="1">  1        2 0.42975965E-02 0.91188000E+02</pdfrwt>
<pdfrwt beam="2">  1       -2 0.11448881E-01 0.91188000E+02</pdfrwt>
<totfact> 0.86753088E+04</totfact>
</mgrwt>
</event>
<event>
 3      1 +4.2044000e+04 9.11880000e+01 7.54677100e-03 1.30000000e-01
        1 -1    0    0  501    0 +0.0000000000e+00 +0.0000000000e+00 +4.2935500967e+01 4.2935500967e+01 0.0000000000e+00 0.0000e+00 -1.0000e+00
       -1 -1    0    0    0  501 -0.0000000000e+00 -0.0000000000e+00 -4.8417109133e+01 4.8417109133e+01 0.0000000000e+00 0.0000e+00 1.0000e+00
       23  1    1    2    0    0 +0.0000000000e+00 +0.0000000000e+00 -5.4816081651e+00 9.1352610100e+01 9.1188000000e+01 0.0000e+00 -1.0000e+00
<mgrwt>
<rscale>  0 0.91188000E+02</rscale>
<asrwt>0</asrwt>
<pdfrwt beam="1">  1        1 0.66054617E-02 0.91188000E+02</pdfrwt>
<pdfrwt beam="2">  1       -1 0.74487860E-02 0.91188000E+02</pdfrwt>
<totfact> 0.91609444E+04</totfact>
</mgrwt>
</event>
<event>
 3      1 +4.2044000e+04 9.11880000e+01 7.54677100e-03 1.30000000e-01
       -1 -1    0    0    0  501 -0.0000000000e+00 +0.0000000000e+00 +2.1097069968e+01 2.1097069968e+01 0.0000000000e+00 0.0000e+00 1.0000e+00
        1 -1    0    0  501    0 +0.0000000000e+00 -0.0000000000e+00 -9.8535618413e+01 9.8535618413e+01 0.0000000000e+00 0.0000e+00 -1.0000e+00
       23  1    1    2    0    0 +0.0000000000e+00 -0.0000000000e+00 -7.7438548445e+01 1.1963268838e+02 9.1188000000e+01 0.0000e+00 1.0000e+00
<mgrwt>
<rscale>  0 0.91188000E+02</rscale>
<asrwt>0</asrwt>
<pdfrwt beam="2">  1        1 0.15159326E-01 0.91188000E+02</pdfrwt>
<pdfrwt beam="1">  1       -1 0.32457031E-02 0.91188000E+02</pdfrwt>
<totfact> 0.10416150E+05</totfact>
</mgrwt>
</event>
<event>
 3      1 +4.2044000e+04 9.11880000e+01 7.54677100e-03 1.30000000e-01
        1 -1    0    0  501    0 +0.0000000000e+00 +0.0000000000e+00 +5.4292853451e+02 5.4292853451e+02 0.0000000000e+00 0.0000e+00 -1.0000e+00
       -1 -1    0    0    0  501 -0.0000000000e+00 -0.0000000000e+00 -3.8288885256e+00 3.8288885256e+00 0.0000000000e+00 0.0000e+00 1.0000e+00
       23  1    1    2    0    0 +0.0000000000e+00 +0.0000000000e+00 +5.3909964599e+02 5.4675742304e+02 9.1188000000e+01 0.0000e+00 -1.0000e+00
<mgrwt>
<rscale>  0 0.91188000E+02</rscale>
<asrwt>0</asrwt>
<pdfrwt beam="1">  1        1 0.83527406E-01 0.91188000E+02</pdfrwt>
<pdfrwt beam="2">  1       -1 0.58906020E-03 0.91188000E+02</pdfrwt>
<totfact> 0.14044698E+05</totfact>
</mgrwt>
</event>
<event>
 3      1 +4.2044000e+04 9.11880000e+01 7.54677100e-03 1.30000000e-01
       -1 -1    0    0    0  501 -0.0000000000e+00 +0.0000000000e+00 +3.6580248220e+00 3.6580248220e+00 0.0000000000e+00 0.0000e+00 1.0000e+00
        1 -1    0    0  501    0 +0.0000000000e+00 -0.0000000000e+00 -5.6828833514e+02 5.6828833514e+02 0.0000000000e+00 0.0000e+00 -1.0000e+00
       23  1    1    2    0    0 +0.0000000000e+00 -0.0000000000e+00 -5.6463031032e+02 5.7194635997e+02 9.1188000000e+01 0.0000e+00 1.0000e+00
<mgrwt>
<rscale>  0 0.91188000E+02</rscale>
<asrwt>0</asrwt>
<pdfrwt beam="2">  1        1 0.87428927E-01 0.91188000E+02</pdfrwt>
<pdfrwt beam="1">  1       -1 0.56277336E-03 0.91188000E+02</pdfrwt>
<totfact> 0.14100619E+05</totfact>
</mgrwt>
</event>
<event>
 3      1 +4.2044000e+04 9.11880000e+01 7.54677100e-03 1.30000000e-01
       -1 -1    0    0    0  501 -0.0000000000e+00 +0.0000000000e+00 +6.0746997966e+02 6.0746997966e+02 0.0000000000e+00 0.0000e+00 1.0000e+00
        1 -1    0    0  501    0 +0.0000000000e+00 -0.0000000000e+00 -3.4220832397e+00 3.4220832397e+00 0.0000000000e+00 0.0000e+00 -1.0000e+00
       23  1    1    2    0    0 +0.0000000000e+00 -0.0000000000e+00 +6.0404789642e+02 6.1089206290e+02 9.1188000000e+01 0.0000e+00 1.0000e+00
<mgrwt>
<rscale>  0 0.91188000E+02</rscale>
<asrwt>0</asrwt>
<pdfrwt beam="2">  1        1 0.52647483E-03 0.91188000E+02</pdfrwt>
<pdfrwt beam="1">  1       -1 0.93456834E-01 0.91188000E+02</pdfrwt>
<totfact> 0.41225373E+04</totfact>
</mgrwt>
</event>
<event>
 3      1 +4.2044000e+04 9.11880000e+01 7.54677100e-03 1.30000000e-01
        4 -1    0    0  501    0 +0.0000000000e+00 +0.0000000000e+00 +4.5504498362e+00 4.5504498362e+00 0.0000000000e+00 0.0000e+00 -1.0000e+00
       -4 -1    0    0    0  501 -0.0000000000e+00 -0.0000000000e+00 -4.5683677676e+02 4.5683677676e+02 0.0000000000e+00 0.0000e+00 1.0000e+00
       23  1    1    2    0    0 +0.0000000000e+00 +0.0000000000e+00 -4.5228632692e+02 4.6138722660e+02 9.1188000000e+01 0.0000e+00 -1.0000e+00
<mgrwt>
<rscale>  0 0.91188000E+02</rscale>
<asrwt>0</asrwt>
<pdfrwt beam="1">  1        4 0.70006903E-03 0.91188000E+02</pdfrwt>
<pdfrwt beam="2">  1       -4 0.70282599E-01 0.91188000E+02</pdfrwt>
<totfact> 0.13811987E+04</totfact>
</mgrwt>
</event>
<event>
 3      1 +4.2044000e+04 9.11880000e+01 7.54677100e-03 1.30000000e-01
       -2 -1    0    0    0  501 -0.0000000000e+00 +0.0000000000e+00 +1.0254438217e+01 1.0254438217e+01 0.0000000000e+00 0.0000e+00 1.0000e+00
        2 -1    0    0  501    0 +0.0000000000e+00 -0.0000000000e+00 -2.0272322988e+02 2.0272322988e+02 0.0000000000e+00 0.0000e+00 -1.0000e+00
       23  1    1    2    0    0 +0.0000000000e+00 -0.0000000000e+00 -1.9246879166e+02 2.1297766810e+02 9.1188000000e+01 0.0000e+00 1.0000e+00
<mgrwt>
<rscale>  0 0.91188000E+02</rscale>
<asrwt>0</asrwt>
<pdfrwt beam="2">  1        2 0.31188186E-01 0.91188000E+02</pdfrwt>
<pdfrwt beam="1">  1       -2 0.15776060E-02 0.91188000E+02</pdfrwt>
<totfact> 0.15538748E+05</totfact>
</mgrwt>
</event>
<event>
 3      1 +4.2044000e+04 9.11880000e+01 7.54677100e-03 1.30000000e-01
       -2 -1    0    0    0  501 -0.0000000000e+00 +0.0000000000e+00 +5.3882717496e+01 5.3882717496e+01 0.0000000000e+00 0.0000e+00 1.0000e+00
        2 -1    0    0  501    0 +0.0000000000e+00 -0.0000000000e+00 -3.8580326543e+01 3.8580326543e+01 0.0000000000e+00 0.0000e+00 -1.0000e+00
       23  1    1    2    0    0 +0.0000000000e+00 -0.0000000000e+00 +1.5302390953e+01 9.2463044039e+01 9.1188000000e+01 0.0000e+00 1.0000e+00
<mgrwt>
<rscale>  0 0.91188000E+02</rscale>
<asrwt>0</asrwt>
<pdfrwt beam="2">  1        2 0.59354348E-02 0.91188000E+02</pdfrwt>
<pdfrwt beam="1">  1       -2 0.82896489E-02 0.91188000E+02</pdfrwt>
<totfact> 0.94466341E+04</totfact>
</mgrwt>
</event>
<event>
 3      1 +4.2044000e+04 9.11880000e+01 7.54677100e-03 1.30000000e-01
        1 -1    0    0  501    0 +0.0000000000e+00 +0.0000000000e+00 +3.4168164606e+01 3.4168164606e+01 0.0000000000e+00 0.0000e+00 -1.0000e+00
       -1 -1    0    0    0  501 -0.0000000000e+00 -0.0000000000e+00 -6.0840635134e+01 6.0840635134e+01 0.0000000000e+00 0.0000e+00 1.0000e+00
       23  1    1    2    0    0 +0.0000000000e+00 +0.0000000000e+00 -2.6672470528e+01 9.5008799740e+01 9.1188000000e+01 0.0000e+00 -1.0000e+00
<mgrwt>
<rscale>  0 0.91188000E+02</rscale>
<asrwt>0</asrwt>
<pdfrwt beam="1">  1        1 0.52566407E-02 0.91188000E+02</pdfrwt>
<pdfrwt beam="2">  1       -1 0.93600977E-02 0.91188000E+02</pdfrwt>
<totfact> 0.88460811E+04</totfact>
</mgrwt>
</event>
<event>
 3      1 +4.2044000e+04 9.11880000e+01 7.54677100e-03 1.30000000e-01
        1 -1    0    0  501    0 +0.0000000000e+00 +0.0000000000e+00 +2.6685376068e+00 2.6685376068e+00 0.0000000000e+00 0.0000e+00 -1.0000e+00
       -1 -1    0    0    0  501 -0.0000000000e+00 -0.0000000000e+00 -7.7900825933e+02 7.7900825933e+02 0.0000000000e+00 0.0000e+00 1.0000e+00
       23  1    1    2    0    0 +0.0000000000e+00 +0.0000000000e+00 -7.7633972172e+02 7.8167679693e+02 9.1188000000e+01 0.0000e+00 -1.0000e+00
<mgrwt>
<rscale>  0 0.91188000E+02</rscale>
<asrwt>0</asrwt>
<pdfrwt beam="1">  1        1 0.41054385E-03 0.91188000E+02</pdfrwt>
<pdfrwt beam="2">  1       -1 0.11984754E+00 0.91188000E+02</pdfrwt>
<totfact> 0.33482502E+04</totfact>
</mgrwt>
</event>
<event>
 3      1 +4.2044000e+04 9.11880000e+01 7.54677100e-03 1.30000000e-01
        2 -1    0    0  501    0 +0.0000000000e+00 +0.0000000000e+00 +4.9554737188e+00 4.9554737188e+00 0.0000000000e+00 0.0000e+00 -1.0000e+00
       -2 -1    0    0    0  501 -0.0000000000e+00 -0.0000000000e+00 -4.1949830711e+02 4.1949830711e+02 0.0000000000e+00 0.0000e+00 1.0000e+00
       23  1    1    2    0    0 +0.0000000000e+00 +0.0000000000e+00 -4.1454283339e+02 4.2445378083e+02 9.1188000000e+01 0.0000e+00 -1.0000e+00
<mgrwt>
<rscale>  0 0.91188000E+02</rscale>
<asrwt>0</asrwt>
<pdfrwt beam="1">  1        2 0.76238036E-03 0.91188000E+02</pdfrwt>
<pdfrwt beam="2">  1       -2 0.64538219E-01 0.91188000E+02</pdfrwt>
<totfact> 0.41306389E+04</totfact>
</mgrwt>
</event>
<event>
 3      1 +4.2044000e+04 9.11880000e+01 7.54677100e-03 1.30000000e-01
        2 -1    0    0  501    0 +0.0000000000e+00 +0.0000000000e+00 +2.1858316867e+03 2.1858316867e+03 0.0000000000e+00 0.0000e+00 -1.0000e+00
       -2 -1    0    0    0  501 -0.0000000000e+00 -0.0000000000e+00 -9.5103975695e-01 9.5103975695e-01 0.0000000000e+00 0.0000e+00 1.0000e+00
       23  1    1    2    0    0 +0.0000000000e+00 +0.0000000000e+00 +2.1848806469e+03 2.1867827264e+03 9.1188000000e+01 0.0000e+00 -1.0000e+00
<mgrwt>
<rscale>  0 0.91188000E+02</rscale>
<asrwt>0</asrwt>
<pdfrwt beam="1">  1        2 0.33627778E+00 0.91188000E+02</pdfrwt>
<pdfrwt beam="2">  1       -2 0.14631556E-03 0.91188000E+02</pdfrwt>
<totfact> 0.17919876E+05</totfact>
</mgrwt>
</event>
<event>
 3      1 +4.2044000e+04 9.11880000e+01 7.54677100e-03 1.30000000e-01
       -2 -1    0    0    0  501 -0.0000000000e+00 +0.0000000000e+00 +1.9810116222e+01 1.9810116222e+01 0.0000000000e+00 0.0000e+00 1.0000e+00
        2 -1    0    0  501    0 +0.0000000000e+00 -0.0000000000e+00 -1.0493693286e+02 1.0493693286e+02 0.0000000000e+00 0.0000e+00 -1.0000e+00
       23  1    1    2    0    0 +0.0000000000e+00 -0.0000000000e+00 -8.5126816643e+01 1.2474704909e+02 9.1188000000e+01 0.0000e+00 1.0000e+00
<mgrwt>
<rscale>  0 0.91188000E+02</rscale>
<asrwt>0</asrwt>
<pdfrwt beam="2">  1        2 0.16144144E-01 0.91188000E+02</pdfrwt>
<pdfrwt beam="1">  1       -2 0.30477101E-02 0.91188000E+02</pdfrwt>
<totfact> 0.12446008E+05</totfact>
</mgrwt>
</event>
<event>
 3      1 +4.2044000e+04 9.11880000e+01 7.54677100e-03 1.30000000e-01
       -4 -1    0    0    0  501 -0.0000000000e+00 +0.0000000000e+00 +1.2566237495e+01 1.2566237495e+01 0.0000000000e+00 0.0000e+00 1.0000e+00
        4 -1    0    0  501    0 +0.0000000000e+00 -0.0000000000e+00 -1.6542842174e+02 1.6542842174e+02 0.0000000000e+00 0.0000e+00 -1.0000e+00
       23  1    1    2    0    0 +0.0000000000e+00 -0.0000000000e+00 -1.5286218424e+02 1.7799465923e+02 9.1188000000e+01 0.0000e+00 1.0000e+00
<mgrwt>
<rscale>  0 0.91188000E+02</rscale>
<asrwt>0</asrwt>
<pdfrwt beam="2">  1        4 0.25450527E-01 0.91188000E+02</pdfrwt>
<pdfrwt beam="1">  1       -4 0.19332672E-02 0.91188000E+02</pdfrwt>
<totfact> 0.22334142E+04</totfact>
</mgrwt>
</event>
<event>
 3      1 +4.2044000e+04 9.11880000e+01 7.54677100e-03 1.30000000e-01
       -2 -1    0    0    0  501 -0.0000000000e+00 +0.0000000000e+00 +1.9651560623e+00 1.9651560623e+00 0.0000000000e+00 0.0000e+00 1.0000e+00
        2 -1    0    0  501    0 +0.0000000000e+00 -0.0000000000e+00 -1.0578360039e+03 1.0578360039e+03 0.0000000000e+00 0.0000e+00 -1.0000e+00
       23  1    1    2    0    0 +0.0000000000e+00 -0.0000000000e+00 -1.0558708479e+03 1.0598011600e+03 9.1188000000e+01 0.0000e+00 1.0000e+00
<mgrwt>
<rscale>  0 0.91188000E+02</rscale>
<asrwt>0</asrwt>
<pdfrwt beam="2">  1        2 0.16274422E+00 0.91188000E+02</pdfrwt>
<pdfrwt beam="1">  1       -2 0.30233130E-03 0.91188000E+02</pdfrwt>
<totfact> 0.25025226E+05</totfact>
</mgrwt>
</event>
<event>
 3      1 +4.2044000e+04 9.11880000e+01 7.54677100e-03 1.30000000e-01
        3 -1    0    0  501    0 +0.0000000000e+00 +0.0000000000e+00 +7.0295091063e+00 7.0295091063e+00 0.0000000000e+00 0.0000e+00 -1.0000e+00
       -3 -1    0    0    0  501 -0.0000000000e+00 -0.0000000000e+00 -2.9572660118e+02 2.9572660118e+02 0.0000000000e+00 0.0000e+00 1.0000e+00
       23  1    1    2    0    0 +0.0000000000e+00 +0.0000000000e+00 -2.8869709208e+02 3.0275611029e+02 9.1188000000e+01 0.0000e+00 -1.0000e+00
<mgrwt>
<rscale>  0 0.91188000E+02</rscale>
<asrwt>0</asrwt>
<pdfrwt beam="1">  1        3 0.10814630E-02 0.91188000E+02</pdfrwt>
<pdfrwt beam="2">  1       -3 0.45496399E-01 0.91188000E+02</pdfrwt>
<totfact> 0.23909209E+04</totfact>
</mgrwt>
</event>
<event>
 3      1 +4.2044000e+04 9.11880000e+01 7.54677100e-03 1.30000000e-01
        2 -1    0    0  501    0 +0.0000000000e+00 +0.0000000000e+00 +2.9690331130e+02 2.9690331130e+02 0.0000000000e+00 0.0000e+00 -1.0000e+00
       -2 -1    0    0    0  501 -0.0000000000e+00 -0.0000000000e+00 -7.0016492134e+00 7.0016492134e+00 0.0000000000e+00 0.0000e+00 1.0000e+00
       23  1    1    2    0    0 +0.0000000000e+00 +0.0000000000e+00 +2.8990166208e+02 3.0390496051e+02 9.1188000000e+01 0.0000e+00 -1.0000e+00
<mgrwt>
<rscale>  0 0.91188000E+02</rscale>
<asrwt>0</asrwt>
<pdfrwt beam="1">  1        2 0.45677423E-01 0.91188000E+02</pdfrwt>
<pdfrwt beam="2">  1       -2 0.10771770E-02 0.91188000E+02</pdfrwt>
<totfact> 0.17890865E+05</totfact>
</mgrwt>
</event>
<event>
 3      1 +4.2044000e+04 9.11880000e+01 7.54677100e-03 1.30000000e-01
       -2 -1    0    0    0  501 -0.0000000000e+00 +0.0000000000e+00 +2.0312740522e+00 2.0312740522e+00 0.0000000000e+00 0.0000e+00 -1.0000e+00
        2 -1    0    0  501    0 +0.0000000000e+00 -0.0000000000e+00 -1.0234034318e+03 1.0234034318e+03 0.0000000000e+00 0.0000e+00 1.0000e+00
       23  1    1    2    0    0 +0.0000000000e+00 -0.0000000000e+00 -1.0213721578e+03 1.0254347059e+03 9.1188000000e+01 0.0000e+00 -1.0000e+00
<mgrwt>
<rscale>  0 0.91188000E+02</rscale>
<asrwt>0</asrwt>
<pdfrwt beam="2">  1        2 0.15744638E+00 0.91188000E+02</pdfrwt>
<pdfrwt beam="1">  1       -2 0.31250429E-03 0.91188000E+02</pdfrwt>
<totfact> 0.25013646E+05</totfact>
</mgrwt>
</event>
<event>
 3      1 +4.2044000e+04 9.11880000e+01 7.54677100e-03 1.30000000e-01
       -2 -1    0    0    0  501 -0.0000000000e+00 +0.0000000000e+00 +1.0460726393e+00 1.0460726393e+00 0.0000000000e+00 0.0000e+00 -1.0000e+00
        2 -1    0    0  501    0 +0.0000000000e+00 -0.0000000000e+00 -1.9872547641e+03 1.9872547641e+03 0.0000000000e+00 0.0000e+00 1.0000e+00
       23  1    1    2    0    0 +0.0000000000e+00 -0.0000000000e+00 -1.9862086914e+03 1.9883008367e+03 9.1188000000e+01 0.0000e+00 -1.0000e+00
<mgrwt>
<rscale>  0 0.91188000E+02</rscale>
<asrwt>0</asrwt>
<pdfrwt beam="2">  1        2 0.30573120E+00 0.91188000E+02</pdfrwt>
<pdfrwt beam="1">  1       -2 0.16093441E-03 0.91188000E+02</pdfrwt>
<totfact> 0.19790946E+05</totfact>
</mgrwt>
</event>
<event>
 3      1 +4.2044000e+04 9.11880000e+01 7.54677100e-03 1.30000000e-01
       -2 -1    0    0    0  501 -0.0000000000e+00 +0.0000000000e+00 +4.5376786059e+00 4.5376786059e+00 0.0000000000e+00 0.0000e+00 -1.0000e+00
        2 -1    0    0  501    0 +0.0000000000e+00 -0.0000000000e+00 -4.5812253722e+02 4.5812253722e+02 0.0000000000e+00 0.0000e+00 1.0000e+00
       23  1    1    2    0    0 +0.0000000000e+00 -0.0000000000e+00 -4.5358485861e+02 4.6266021582e+02 9.1188000000e+01 0.0000e+00 -1.0000e+00
<mgrwt>
<rscale>  0 0.91188000E+02</rscale>
<asrwt>0</asrwt>
<pdfrwt beam="2">  1        2 0.70480396E-01 0.91188000E+02</pdfrwt>
<pdfrwt beam="1">  1       -2 0.69810434E-03 0.91188000E+02</pdfrwt>
<totfact> 0.20924674E+05</totfact>
</mgrwt>
</event>
<event>
 3      1 +4.2044000e+04 9.11880000e+01 7.54677100e-03 1.30000000e-01
       -1 -1    0    0    0  501 -0.0000000000e+00 +0.0000000000e+00 +4.1516301929e+01 4.1516301929e+01 0.0000000000e+00 0.0000e+00 1.0000e+00
        1 -1    0    0  501    0 +0.0000000000e+00 -0.0000000000e+00 -5.0072206325e+01 5.0072206325e+01 0.0000000000e+00 0.0000e+00 -1.0000e+00
       23  1    1    2    0    0 +0.0000000000e+00 -0.0000000000e+00 -8.5559043960e+00 9.1588508253e+01 9.1188000000e+01 0.0000e+00 1.0000e+00
<mgrwt>
<rscale>  0 0.91188000E+02</rscale>
<asrwt>0</asrwt>
<pdfrwt beam="2">  1        1 0.77034164E-02 0.91188000E+02</pdfrwt>
<pdfrwt beam="1">  1       -1 0.63871233E-02 0.91188000E+02</pdfrwt>
<totfact> 0.93752097E+04</totfact>
</mgrwt>
</event>
<event>
 3      1 +4.2044000e+04 9.11880000e+01 7.54677100e-03 1.30000000e-01
       -1 -1    0    0    0  501 -0.0000000000e+00 +0.0000000000e+00 +7.5662244989e+00 7.5662244989e+00 0.0000000000e+00 0.0000e+00 1.0000e+00
        1 -1    0    0  501    0 +0.0000000000e+00 -0.0000000000e+00 -2.7474902923e+02 2.7474902923e+02 0.0000000000e+00 0.0000e+00 -1.0000e+00
       23  1    1    2    0    0 +0.0000000000e+00 -0.0000000000e+00 -2.6718280473e+02 2.8231525373e+02 9.1188000000e+01 0.0000e+00 1.0000e+00
<mgrwt>
<rscale>  0 0.91188000E+02</rscale>
<asrwt>0</asrwt>
<pdfrwt beam="2">  1        1 0.42269083E-01 0.91188000E+02</pdfrwt>
<pdfrwt beam="1">  1       -1 0.11640345E-02 0.91188000E+02</pdfrwt>
<totfact> 0.12592813E+05</totfact>
</mgrwt>
</event>
<event>
 3      1 +4.2044000e+04 9.11880000e+01 7.54677100e-03 1.30000000e-01
        2 -1    0    0  501    0 +0.0000000000e+00 +0.0000000000e+00 +1.5235264058e+02 1.5235264058e+02 0.0000000000e+00 0.0000e+00 -1.0000e+00
       -2 -1    0    0    0  501 -0.0000000000e+00 -0.0000000000e+00 -1.3644744378e+01 1.3644744378e+01 0.0000000000e+00 0.0000e+00 1.0000e+00
       23  1    1    2    0    0 +0.0000000000e+00 +0.0000000000e+00 +1.3870789620e+02 1.6599738496e+02 9.1188000000e+01 0.0000e+00 -1.0000e+00
<mgrwt>
<rscale>  0 0.91188000E+02</rscale>
<asrwt>0</asrwt>
<pdfrwt beam="1">  1        2 0.23438867E-01 0.91188000E+02</pdfrwt>
<pdfrwt beam="2">  1       -2 0.20991915E-02 0.91188000E+02</pdfrwt>
<totfact> 0.14050639E+05</totfact>
</mgrwt>
</event>
<event>
 3      1 +4.2044000e+04 9.11880000e+01 7.54677100e-03 1.30000000e-01
       -2 -1    0    0    0  501 -0.0000000000e+00 +0.0000000000e+00 +3.0463974108e+02 3.0463974108e+02 0.0000000000e+00 0.0000e+00 1.0000e+00
        2 -1    0    0  501    0 +0.0000000000e+00 -0.0000000000e+00 -6.8238399516e+00 6.8238399516e+00 0.0000000000e+00 0.0000e+00 -1.0000e+00
       23  1    1    2    0    0 +0.0000000000e+00 -0.0000000000e+00 +2.9781590113e+02 3.1146358103e+02 9.1188000000e+01 0.0000e+00 1.0000e+00
<mgrwt>
<rscale>  0 0.91188000E+02</rscale>
<asrwt>0</asrwt>
<pdfrwt beam="2">  1        2 0.10498218E-02 0.91188000E+02</pdfrwt>
<pdfrwt beam="1">  1       -2 0.46867642E-01 0.91188000E+02</pdfrwt>
<totfact> 0.50544912E+04</totfact>
</mgrwt>
</event>
<event>
 3      1 +4.2044000e+04 9.11880000e+01 7.54677100e-03 1.30000000e-01
       -2 -1    0    0    0  501 -0.0000000000e+00 +0.0000000000e+00 +7.1761727654e-01 7.1761727654e-01 0.0000000000e+00 0.0000e+00 1.0000e+00
        2 -1    0    0  501    0 +0.0000000000e+00 -0.0000000000e+00 -2.8968266288e+03 2.8968266288e+03 0.0000000000e+00 0.0000e+00 -1.0000e+00
       23  1    1    2    0    0 +0.0000000000e+00 -0.0000000000e+00 -2.8961090115e+03 2.8975442461e+03 9.1188000000e+01 0.0000e+00 1.0000e+00
<mgrwt>
<rscale>  0 0.91188000E+02</rscale>
<asrwt>0</asrwt>
<pdfrwt beam="2">  1        2 0.44567153E+00 0.91188000E+02</pdfrwt>
<pdfrwt beam="1">  1       -2 0.11040120E-03 0.91188000E+02</pdfrwt>
<totfact> 0.11100116E+05</totfact>
</mgrwt>
</event>
<event>
 3      1 +4.2044000e+04 9.11880000e+01 7.54677100e-03 1.30000000e-01
       -4 -1    0    0    0  501 -0.0000000000e+00 +0.0000000000e+00 +9.6792410770e+00 9.6792410770e+00 0.0000000000e+00 0.0000e+00 1.0000e+00
        4 -1    0    0  501    0 +0.0000000000e+00 -0.0000000000e+00 -2.1477023038e+02 2.1477023038e+02 0.0000000000e+00 0.0000e+00 -1.0000e+00
       23  1    1    2    0    0 +0.0000000000e+00 -0.0000000000e+00 -2.0509098930e+02 2.2444947146e+02 9.1188000000e+01 0.0000e+00 1.0000e+00
<mgrwt>
<rscale>  0 0.91188000E+02</rscale>
<asrwt>0</asrwt>
<pdfrwt beam="2">  1        4 0.33041571E-01 0.91188000E+02</pdfrwt>
<pdfrwt beam="1">  1       -4 0.14891141E-02 0.91188000E+02</pdfrwt>
<totfact> 0.20399828E+04</totfact>
</mgrwt>
</event>
<event>
 3      1 +4.2044000e+04 9.11880000e+01 7.54677100e-03 1.30000000e-01
       -1 -1    0    0    0  501 -0.0000000000e+00 +0.0000000000e+00 +1.5976586483e+01 1.5976586483e+01 0.0000000000e+00 0.0000e+00 1.0000e+00
        1 -1    0    0  501    0 +0.0000000000e+00 -0.0000000000e+00 -1.3011620713e+02 1.3011620713e+02 0.0000000000e+00 0.0000e+00 -1.0000e+00
       23  1    1    2    0    0 +0.0000000000e+00 -0.0000000000e+00 -1.1413962065e+02 1.4609279361e+02 9.1188000000e+01 0.0000e+00 1.0000e+00
<mgrwt>
<rscale>  0 0.91188000E+02</rscale>
<asrwt>0</asrwt>
<pdfrwt beam="2">  1        1 0.20017878E-01 0.91188000E+02</pdfrwt>
<pdfrwt beam="1">  1       -1 0.24579363E-02 0.91188000E+02</pdfrwt>
<totfact> 0.10924828E+05</totfact>
</mgrwt>
</event>
<event>
 3      1 +4.2044000e+04 9.11880000e+01 7.54677100e-03 1.30000000e-01
        2 -1    0    0  501    0 +0.0000000000e+00 +0.0000000000e+00 +5.6031794895e+02 5.6031794895e+02 0.0000000000e+00 0.0000e+00 -1.0000e+00
       -2 -1    0    0    0  501 -0.0000000000e+00 -0.0000000000e+00 -3.7100593331e+00 3.7100593331e+00 0.0000000000e+00 0.0000e+00 1.0000e+00
       23  1    1    2    0    0 +0.0000000000e+00 +0.0000000000e+00 +5.5660788962e+02 5.6402800829e+02 9.1188000000e+01 0.0000e+00 -1.0000e+00
<mgrwt>
<rscale>  0 0.91188000E+02</rscale>
<asrwt>0</asrwt>
<pdfrwt beam="1">  1        2 0.86202694E-01 0.91188000E+02</pdfrwt>
<pdfrwt beam="2">  1       -2 0.57077880E-03 0.91188000E+02</pdfrwt>
<totfact> 0.22326029E+05</totfact>
</mgrwt>
</event>
<event>
 3      1 +4.2044000e+04 9.11880000e+01 7.54677100e-03 1.30000000e-01
        2 -1    0    0  501    0 +0.0000000000e+00 +0.0000000000e+00 +1.2854113339e+02 1.2854113339e+02 0.0000000000e+00 0.0000e+00 -1.0000e+00
       -2 -1    0    0    0  501 -0.0000000000e+00 -0.0000000000e+00 -1.6172354959e+01 1.6172354959e+01 0.0000000000e+00 0.0000e+00 1.0000e+00
       23  1    1    2    0    0 +0.0000000000e+00 +0.0000000000e+00 +1.1236877843e+02 1.4471348835e+02 9.1188000000e+01 0.0000e+00 -1.0000e+00
<mgrwt>
<rscale>  0 0.91188000E+02</rscale>
<asrwt>0</asrwt>
<pdfrwt beam="1">  1        2 0.19775558E-01 0.91188000E+02</pdfrwt>
<pdfrwt beam="2">  1       -2 0.24880547E-02 0.91188000E+02</pdfrwt>
<totfact> 0.13274439E+05</totfact>
</mgrwt>
</event>
<event>
 3      1 +4.2044000e+04 9.11880000e+01 7.54677100e-03 1.30000000e-01
       -3 -1    0    0    0  501 -0.0000000000e+00 +0.0000000000e+00 +1.6326310136e+02 1.6326310136e+02 0.0000000000e+00 0.0000e+00 1.0000e+00
        3 -1    0    0  501    0 +0.0000000000e+00 -0.0000000000e+00 -1.2732900567e+01 1.2732900567e+01 0.0000000000e+00 0.0000e+00 -1.0000e+00
       23  1    1    2    0    0 +0.0000000000e+00 -0.0000000000e+00 +1.5053020080e+02 1.7599600193e+02 9.1188000000e+01 0.0000e+00 1.0000e+00
<mgrwt>
<rscale>  0 0.91188000E+02</rscale>
<asrwt>0</asrwt>
<pdfrwt beam="2">  1        3 0.19589079E-02 0.91188000E+02</pdfrwt>
<pdfrwt beam="1">  1       -3 0.25117399E-01 0.91188000E+02</pdfrwt>
<totfact> 0.29778403E+04</totfact>
</mgrwt>
</event>
<event>
 3      1 +4.2044000e+04 9.11880000e+01 7.54677100e-03 1.30000000e-01
       -1 -1    0    0    0  501 -0.0000000000e+00 +0.0000000000e+00 +1.2573635309e+02 1.2573635309e+02 0.0000000000e+00 0.0000e+00 1.0000e+00
        1 -1    0    0  501    0 +0.0000000000e+00 -0.0000000000e+00 -1.6533109040e+01 1.6533109040e+01 0.0000000000e+00 0.0000e+00 -1.0000e+00
       23  1    1    2    0    0 +0.0000000000e+00 -0.0000000000e+00 +1.0920324405e+02 1.4226946213e+02 9.1188000000e+01 0.0000e+00 1.0000e+00
<mgrwt>
<rscale>  0 0.91188000E+02</rscale>
<asrwt>0</asrwt>
<pdfrwt beam="2">  1        1 0.25435553E-02 0.91188000E+02</pdfrwt>
<pdfrwt beam="1">  1       -1 0.19344054E-01 0.91188000E+02</pdfrwt>
<totfact> 0.77749009E+04</totfact>
</mgrwt>
</event>
<event>
 3      1 +4.2044000e+04 9.11880000e+01 7.54677100e-03 1.30000000e-01
        2 -1    0    0  501    0 +0.0000000000e+00 +0.0000000000e+00 +2.9733259741e+03 2.9733259741e+03 0.0000000000e+00 0.0000e+00 1.0000e+00
       -2 -1    0    0    0  501 -0.0000000000e+00 -0.0000000000e+00 -6.9915402956e-01 6.9915402956e-01 0.0000000000e+00 0.0000e+00 -1.0000e+00
       23  1    1    2    0    0 +0.0000000000e+00 +0.0000000000e+00 +2.9726268201e+03 2.9740251281e+03 9.1188000000e+01 0.0000e+00 1.0000e+00
<mgrwt>
<rscale>  0 0.91188000E+02</rscale>
<asrwt>0</asrwt>
<pdfrwt beam="1">  1        2 0.45742464E+00 0.91188000E+02</pdfrwt>
<pdfrwt beam="2">  1       -2 0.10756454E-03 0.91188000E+02</pdfrwt>
<totfact> 0.10421258E+05</totfact>
</mgrwt>
</event>
<event>
 3      1 +4.2044000e+04 9.11880000e+01 7.54677100e-03 1.30000000e-01
        2 -1    0    0  501    0 +0.0000000000e+00 +0.0000000000e+00 +2.7817555933e+02 2.7817555933e+02 0.0000000000e+00 0.0000e+00 1.0000e+00
       -2 -1    0    0    0  501 -0.0000000000e+00 -0.0000000000e+00 -7.4730247367e+00 7.4730247367e+00 0.0000000000e+00 0.0000e+00 -1.0000e+00
       23  1    1    2    0    0 +0.0000000000e+00 +0.0000000000e+00 +2.7070253459e+02 2.8564858406e+02 9.1188000000e+01 0.0000e+00 1.0000e+00
<mgrwt>
<rscale>  0 0.91188000E+02</rscale>
<asrwt>0</asrwt>
<pdfrwt beam="1">  1        2 0.42796232E-01 0.91188000E+02</pdfrwt>
<pdfrwt beam="2">  1       -2 0.11496963E-02 0.91188000E+02</pdfrwt>
<totfact> 0.17461320E+05</totfact>
</mgrwt>
</event>
<event>
 3      1 +4.2044000e+04 9.11880000e+01 7.54677100e-03 1.30000000e-01
        1 -1    0    0  501    0 +0.0000000000e+00 +0.0000000000e+00 +1.5282021497e+02 1.5282021497e+02 0.0000000000e+00 0.0000e+00 -1.0000e+00
       -1 -1    0    0    0  501 -0.0000000000e+00 -0.0000000000e+00 -1.3602996412e+01 1.3602996412e+01 0.0000000000e+00 0.0000e+00 1.0000e+00
       23  1    1    2    0    0 +0.0000000000e+00 +0.0000000000e+00 +1.3921721856e+02 1.6642321138e+02 9.1188000000e+01 0.0000e+00 -1.0000e+00
<mgrwt>
<rscale>  0 0.91188000E+02</rscale>
<asrwt>0</asrwt>
<pdfrwt beam="1">  1        1 0.23510801E-01 0.91188000E+02</pdfrwt>
<pdfrwt beam="2">  1       -1 0.20927688E-02 0.91188000E+02</pdfrwt>
<totfact> 0.11248096E+05</totfact>
</mgrwt>
</event>
<event>
 3      1 +4.2044000e+04 9.11880000e+01 7.54677100e-03 1.30000000e-01
        2 -1    0    0  501    0 +0.0000000000e+00 +0.0000000000e+00 +2.5997007771e+01 2.5997007771e+01 0.0000000000e+00 0.0000e+00 -1.0000e+00
       -2 -1    0    0    0  501 -0.0000000000e+00 -0.0000000000e+00 -7.9963542508e+01 7.9963542508e+01 0.0000000000e+00 0.0000e+00 1.0000e+00
       23  1    1    2    0    0 +0.0000000000e+00 +0.0000000000e+00 -5.3966534736e+01 1.0596055028e+02 9.1188000000e+01 0.0000e+00 -1.0000e+00
<mgrwt>
<rscale>  0 0.91188000E+02</rscale>
<asrwt>0</asrwt>
<pdfrwt beam="1">  1        2 0.39995397E-02 0.91188000E+02</pdfrwt>
<pdfrwt beam="2">  1       -2 0.12302083E-01 0.91188000E+02</pdfrwt>
<totfact> 0.85063806E+04</totfact>
</mgrwt>
</event>
<event>
 3      1 +4.2044000e+04 9.11880000e+01 7.54677100e-03 1.30000000e-01
       -3 -1    0    0    0  501 -0.0000000000e+00 +0.0000000000e+00 +1.1193428691e+03 1.1193428691e+03 0.0000000000e+00 0.0000e+00 1.0000e+00
        3 -1    0    0  501    0 +0.0000000000e+00 -0.0000000000e+00 -1.8571725371e+00 1.8571725371e+00 0.0000000000e+00 0.0000e+00 -1.0000e+00
       23  1    1    2    0    0 +0.0000000000e+00 -0.0000000000e+00 +1.1174856965e+03 1.1212000416e+03 9.1188000000e+01 0.0000e+00 1.0000e+00
<mgrwt>
<rscale>  0 0.91188000E+02</rscale>
<asrwt>0</asrwt>
<pdfrwt beam="2">  1        3 0.28571975E-03 0.91188000E+02</pdfrwt>
<pdfrwt beam="1">  1       -3 0.17220606E+00 0.91188000E+02</pdfrwt>
<totfact> 0.88153912E+03</totfact>
</mgrwt>
</event>
<event>
 3      1 +4.2044000e+04 9.11880000e+01 7.54677100e-03 1.30000000e-01
        3 -1    0    0  501    0 +0.0000000000e+00 +0.0000000000e+00 +2.4208227486e+01 2.4208227486e+01 0.0000000000e+00 0.0000e+00 -1.0000e+00
       -3 -1    0    0    0  501 -0.0000000000e+00 -0.0000000000e+00 -8.5872162147e+01 8.5872162147e+01 0.0000000000e+00 0.0000e+00 1.0000e+00
       23  1    1    2    0    0 +0.0000000000e+00 +0.0000000000e+00 -6.1663934661e+01 1.1008038963e+02 9.1188000000e+01 0.0000e+00 -1.0000e+00
<mgrwt>
<rscale>  0 0.91188000E+02</rscale>
<asrwt>0</asrwt>
<pdfrwt beam="1">  1        3 0.37243428E-02 0.91188000E+02</pdfrwt>
<pdfrwt beam="2">  1       -3 0.13211102E-01 0.91188000E+02</pdfrwt>
<totfact> 0.33929367E+04</totfact>
</mgrwt>
</event>
<event>
 3      1 +4.2044000e+04 9.11880000e+01 7.54677100e-03 1.30000000e-01
        1 -1    0    0  501    0 +0.0000000000e+00 +0.0000000000e+00 +3.3067021421e+02 3.3067021421e+02 0.0000000000e+00 0.0000e+00 -1.0000e+00
       -1 -1    0    0    0  501 -0.0000000000e+00 -0.0000000000e+00 -6.2866649207e+00 6.2866649207e+00 0.0000000000e+00 0.0000e+00 1.0000e+00
       23  1    1    2    0    0 +0.0000000000e+00 +0.0000000000e+00 +3.2438354929e+02 3.3695687913e+02 9.1188000000e+01 0.0000e+00 -1.0000e+00
<mgrwt>
<rscale>  0 0.91188000E+02</rscale>
<asrwt>0</asrwt>
<pdfrwt beam="1">  1        1 0.50872327E-01 0.91188000E+02</pdfrwt>
<pdfrwt beam="2">  1       -1 0.96717948E-03 0.91188000E+02</pdfrwt>
<totfact> 0.13043916E+05</totfact>
</mgrwt>
</event>
<event>
 3      1 +4.2044000e+04 9.11880000e+01 7.54677100e-03 1.30000000e-01
        1 -1    0    0  501    0 +0.0000000000e+00 +0.0000000000e+00 +1.2346972556e+02 1.2346972556e+02 0.0000000000e+00 0.0000e+00 -1.0000e+00
       -1 -1    0    0    0  501 -0.0000000000e+00 -0.0000000000e+00 -1.6836619880e+01 1.6836619880e+01 0.0000000000e+00 0.0000e+00 1.0000e+00
       23  1    1    2    0    0 +0.0000000000e+00 +0.0000000000e+00 +1.0663310568e+02 1.4030634544e+02 9.1188000000e+01 0.0000e+00 -1.0000e+00
<mgrwt>
<rscale>  0 0.91188000E+02</rscale>
<asrwt>0</asrwt>
<pdfrwt beam="1">  1        1 0.18995342E-01 0.91188000E+02</pdfrwt>
<pdfrwt beam="2">  1       -1 0.25902493E-02 0.91188000E+02</pdfrwt>
<totfact> 0.10824051E+05</totfact>
</mgrwt>
</event>
<event>
 3      1 +4.2044000e+04 9.11880000e+01 7.54677100e-03 1.30000000e-01
        1 -1    0    0  501    0 +0.0000000000e+00 +0.0000000000e+00 +7.1079103760e+02 7.1079103760e+02 0.0000000000e+00 0.0000e+00 -1.0000e+00
       -1 -1    0    0    0  501 -0.0000000000e+00 -0.0000000000e+00 -2.9246469441e+00 2.9246469441e+00 0.0000000000e+00 0.0000e+00 1.0000e+00
       23  1    1    2    0    0 +0.0000000000e+00 +0.0000000000e+00 +7.0786639066e+02 7.1371568455e+02 9.1188000000e+01 0.0000e+00 -1.0000e+00
<mgrwt>
<rscale>  0 0.91188000E+02</rscale>
<asrwt>0</asrwt>
<pdfrwt beam="1">  1        1 0.10935233E+00 0.91188000E+02</pdfrwt>
<pdfrwt beam="2">  1       -1 0.44994625E-03 0.91188000E+02</pdfrwt>
<totfact> 0.14210084E+05</totfact>
</mgrwt>
</event>
<event>
 3      1 +4.2044000e+04 9.11880000e+01 7.54677100e-03 1.30000000e-01
       -1 -1    0    0    0  501 -0.0000000000e+00 +0.0000000000e+00 +9.3207449061e+01 9.3207449061e+01 0.0000000000e+00 0.0000e+00 1.0000e+00
        1 -1    0    0  501    0 +0.0000000000e+00 -0.0000000000e+00 -2.2303076170e+01 2.2303076170e+01 0.0000000000e+00 0.0000e+00 -1.0000e+00
       23  1    1    2    0    0 +0.0000000000e+00 -0.0000000000e+00 +7.0904372891e+01 1.1551052523e+02 9.1188000000e+01 0.0000e+00 1.0000e+00
<mgrwt>
<rscale>  0 0.91188000E+02</rscale>
<asrwt>0</asrwt>
<pdfrwt beam="2">  1        1 0.34312425E-02 0.91188000E+02</pdfrwt>
<pdfrwt beam="1">  1       -1 0.14339607E-01 0.91188000E+02</pdfrwt>
<totfact> 0.82398696E+04</totfact>
</mgrwt>
</event>
<event>
 3      1 +4.2044000e+04 9.11880000e+01 7.54677100e-03 1.30000000e-01
       -4 -1    0    0    0  501 -0.0000000000e+00 +0.0000000000e+00 +2.4661026390e+02 2.4661026390e+02 0.0000000000e+00 0.0000e+00 1.0000e+00
        4 -1    0    0  501    0 +0.0000000000e+00 -0.0000000000e+00 -8.4295471046e+00 8.4295471046e+00 0.0000000000e+00 0.0000e+00 -1.0000e+00
       23  1    1    2    0    0 +0.0000000000e+00 -0.0000000000e+00 +2.3818071679e+02 2.5503981100e+02 9.1188000000e+01 0.0000e+00 1.0000e+00
<mgrwt>
<rscale>  0 0.91188000E+02</rscale>
<asrwt>0</asrwt>
<pdfrwt beam="2">  1        4 0.12968536E-02 0.91188000E+02</pdfrwt>
<pdfrwt beam="1">  1       -4 0.37940035E-01 0.91188000E+02</pdfrwt>
<totfact> 0.19280255E+04</totfact>
</mgrwt>
</event>
<event>
 3      1 +4.2044000e+04 9.11880000e+01 7.54677100e-03 1.30000000e-01
       -3 -1    0    0    0  501 -0.0000000000e+00 +0.0000000000e+00 +3.4729722495e+02 3.4729722495e+02 0.0000000000e+00 0.0000e+00 1.0000e+00
        3 -1    0    0  501    0 +0.0000000000e+00 -0.0000000000e+00 -5.9856880120e+00 5.9856880120e+00 0.0000000000e+00 0.0000e+00 -1.0000e+00
       23  1    1    2    0    0 +0.0000000000e+00 -0.0000000000e+00 +3.4131153694e+02 3.5328291297e+02 9.1188000000e+01 0.0000e+00 1.0000e+00
<mgrwt>
<rscale>  0 0.91188000E+02</rscale>
<asrwt>0</asrwt>
<pdfrwt beam="2">  1        3 0.92087535E-03 0.91188000E+02</pdfrwt>
<pdfrwt beam="1">  1       -3 0.53430326E-01 0.91188000E+02</pdfrwt>
<totfact> 0.22087353E+04</totfact>
</mgrwt>
</event>
<event>
 3      1 +4.2044000e+04 9.11880000e+01 7.54677100e-03 1.30000000e-01
        3 -1    0    0  501    0 +0.0000000000e+00 +0.0000000000e+00 +6.0904937690e+00 6.0904937690e+00 0.0000000000e+00 0.0000e+00 -1.0000e+00
       -3 -1    0    0    0  501 -0.0000000000e+00 -0.0000000000e+00 -3.4132090350e+02 3.4132090350e+02 0.0000000000e+00 0.0000e+00 1.0000e+00
       23  1    1    2    0    0 +0.0000000000e+00 +0.0000000000e+00 -3.3523040973e+02 3.4741139727e+02 9.1188000000e+01 0.0000e+00 -1.0000e+00
<mgrwt>
<rscale>  0 0.91188000E+02</rscale>
<asrwt>0</asrwt>
<pdfrwt beam="1">  1        3 0.93699912E-03 0.91188000E+02</pdfrwt>
<pdfrwt beam="2">  1       -3 0.52510904E-01 0.91188000E+02</pdfrwt>
<totfact> 0.22287350E+04</totfact>
</mgrwt>
</event>
<event>
 3      1 +4.2044000e+04 9.11880000e+01 7.54677100e-03 1.30000000e-01
       -3 -1    0    0    0  501 -0.0000000000e+00 +0.0000000000e+00 +1.4480472415e+02 1.4480472415e+02 0.0000000000e+00 0.0000e+00 1.0000e+00
        3 -1    0    0  501    0 +0.0000000000e+00 -0.0000000000e+00 -1.4355973869e+01 1.4355973869e+01 0.0000000000e+00 0.0000e+00 -1.0000e+00
       23  1    1    2    0    0 +0.0000000000e+00 -0.0000000000e+00 +1.3044875028e+02 1.5916069802e+02 9.1188000000e+01 0.0000e+00 1.0000e+00
<mgrwt>
<rscale>  0 0.91188000E+02</rscale>
<asrwt>0</asrwt>
<pdfrwt beam="2">  1        3 0.22086115E-02 0.91188000E+02</pdfrwt>
<pdfrwt beam="1">  1       -3 0.22277649E-01 0.91188000E+02</pdfrwt>
<totfact> 0.30746410E+04</totfact>
</mgrwt>
</event>
<event>
 3      1 +4.2044000e+04 9.11880000e+01 7.54677100e-03 1.30000000e-01
        4 -1    0    0  501    0 +0.0000000000e+00 +0.0000000000e+00 +3.4551811882e+00 3.4551811882e+00 0.0000000000e+00 0.0000e+00 -1.0000e+00
       -4 -1    0    0    0  501 -0.0000000000e+00 -0.0000000000e+00 -6.0165088971e+02 6.0165088971e+02 0.0000000000e+00 0.0000e+00 1.0000e+00
       23  1    1    2    0    0 +0.0000000000e+00 +0.0000000000e+00 -5.9819570852e+02 6.0510607090e+02 9.1188000000e+01 0.0000e+00 -1.0000e+00
<mgrwt>
<rscale>  0 0.91188000E+02</rscale>
<asrwt>0</asrwt>
<pdfrwt beam="1">  1        4 0.53156623E-03 0.91188000E+02</pdfrwt>
<pdfrwt beam="2">  1       -4 0.92561693E-01 0.91188000E+02</pdfrwt>
<totfact> 0.11328144E+04</totfact>
</mgrwt>
</event>
<event>
 3      1 +4.2044000e+04 9.11880000e+01 7.54677100e-03 1.30000000e-01
        4 -1    0    0  501    0 +0.0000000000e+00 +0.0000000000e+00 +4.7022522081e+01 4.7022522081e+01 0.0000000000e+00 0.0000e+00 -1.0000e+00
       -4 -1    0    0    0  501 -0.0000000000e+00 -0.0000000000e+00 -4.4208875747e+01 4.4208875747e+01 0.0000000000e+00 0.0000e+00 1.0000e+00
       23  1    1    2    0    0 +0.0000000000e+00 +0.0000000000e+00 +2.8136463335e+00 9.1231397828e+01 9.1188000000e+01 0.0000e+00 -1.0000e+00
<mgrwt>
<rscale>  0 0.91188000E+02</rscale>
<asrwt>0</asrwt>
<pdfrwt beam="1">  1        4 0.72342342E-02 0.91188000E+02</pdfrwt>
<pdfrwt beam="2">  1       -4 0.68013655E-02 0.91188000E+02</pdfrwt>
<totfact> 0.27003701E+04</totfact>
</mgrwt>
</event>
<event>
 3      1 +4.2044000e+04 9.11880000e+01 7.54677100e-03 1.30000000e-01
       -2 -1    0    0    0  501 -0.0000000000e+00 +0.0000000000e+00 +6.6870589123e+01 6.6870589123e+01 0.0000000000e+00 0.0000e+00 1.0000e+00
        2 -1    0    0  501    0 +0.0000000000e+00 -0.0000000000e+00 -3.1087102166e+01 3.1087102166e+01 0.0000000000e+00 0.0000e+00 -1.0000e+00
       23  1    1    2    0    0 +0.0000000000e+00 -0.0000000000e+00 +3.5783486957e+01 9.7957691290e+01 9.1188000000e+01 0.0000e+00 1.0000e+00
<mgrwt>
<rscale>  0 0.91188000E+02</rscale>
<asrwt>0</asrwt>
<pdfrwt beam="2">  1        2 0.47826311E-02 0.91188000E+02</pdfrwt>
<pdfrwt beam="1">  1       -2 0.10287783E-01 0.91188000E+02</pdfrwt>
<totfact> 0.89275775E+04</totfact>
</mgrwt>
</event>
<event>
 3      1 +4.2044000e+04 9.11880000e+01 7.54677100e-03 1.30000000e-01
        2 -1    0    0  501    0 +0.0000000000e+00 +0.0000000000e+00 +6.6601074013e+01 6.6601074013e+01 0.0000000000e+00 0.0000e+00 1.0000e+00
       -2 -1    0    0    0  501 -0.0000000000e+00 -0.0000000000e+00 -3.1212902597e+01 3.1212902597e+01 0.0000000000e+00 0.0000e+00 -1.0000e+00
       23  1    1    2    0    0 +0.0000000000e+00 +0.0000000000e+00 +3.5388171416e+01 9.7813976610e+01 9.1188000000e+01 0.0000e+00 1.0000e+00
<mgrwt>
<rscale>  0 0.91188000E+02</rscale>
<asrwt>0</asrwt>
<pdfrwt beam="1">  1        2 0.10246319E-01 0.91188000E+02</pdfrwt>
<pdfrwt beam="2">  1       -2 0.48019850E-02 0.91188000E+02</pdfrwt>
<totfact> 0.10907552E+05</totfact>
</mgrwt>
</event>
<event>
 3      1 +4.2044000e+04 9.11880000e+01 7.54677100e-03 1.30000000e-01
       -3 -1    0    0    0  501 -0.0000000000e+00 +0.0000000000e+00 +3.6527817016e+01 3.6527817016e+01 0.0000000000e+00 0.0000e+00 1.0000e+00
        3 -1    0    0  501    0 +0.0000000000e+00 -0.0000000000e+00 -5.6910404339e+01 5.6910404339e+01 0.0000000000e+00 0.0000e+00 -1.0000e+00
       23  1    1    2    0    0 +0.0000000000e+00 -0.0000000000e+00 -2.0382587323e+01 9.3438221355e+01 9.1188000000e+01 0.0000e+00 1.0000e+00
<mgrwt>
<rscale>  0 0.91188000E+02</rscale>
<asrwt>0</asrwt>
<pdfrwt beam="2">  1        3 0.87554468E-02 0.91188000E+02</pdfrwt>
<pdfrwt beam="1">  1       -3 0.56196642E-02 0.91188000E+02</pdfrwt>
<totfact> 0.35153871E+04</totfact>
</mgrwt>
</event>
<event>
 3      1 +4.2044000e+04 9.11880000e+01 7.54677100e-03 1.30000000e-01
        2 -1    0    0  501    0 +0.0000000000e+00 +0.0000000000e+00 +1.7813884329e+02 1.7813884329e+02 0.0000000000e+00 0.0000e+00 -1.0000e+00
       -2 -1    0    0    0  501 -0.0000000000e+00 -0.0000000000e+00 -1.1669621278e+01 1.1669621278e+01 0.0000000000e+00 0.0000e+00 1.0000e+00
       23  1    1    2    0    0 +0.0000000000e+00 +0.0000000000e+00 +1.6646922201e+02 1.8980846456e+02 9.1188000000e+01 0.0000e+00 -1.0000e+00
<mgrwt>
<rscale>  0 0.91188000E+02</rscale>
<asrwt>0</asrwt>
<pdfrwt beam="1">  1        2 0.27405974E-01 0.91188000E+02</pdfrwt>
<pdfrwt beam="2">  1       -2 0.17953265E-02 0.91188000E+02</pdfrwt>
<totfact> 0.14834931E+05</totfact>
</mgrwt>
</event>
<event>
 3      1 +4.2044000e+04 9.11880000e+01 7.54677100e-03 1.30000000e-01
        2 -1    0    0  501    0 +0.0000000000e+00 +0.0000000000e+00 +1.1967835531e+03 1.1967835531e+03 0.0000000000e+00 0.0000e+00 -1.0000e+00
       -2 -1    0    0    0  501 -0.0000000000e+00 -0.0000000000e+00 -1.7369998364e+00 1.7369998364e+00 0.0000000000e+00 0.0000e+00 1.0000e+00
       23  1    1    2    0    0 +0.0000000000e+00 +0.0000000000e+00 +1.1950465533e+03 1.1985205529e+03 9.1188000000e+01 0.0000e+00 -1.0000e+00
<mgrwt>
<rscale>  0 0.91188000E+02</rscale>
<asrwt>0</asrwt>
<pdfrwt beam="1">  1        2 0.18411989E+00 0.91188000E+02</pdfrwt>
<pdfrwt beam="2">  1       -2 0.26723170E-03 0.91188000E+02</pdfrwt>
<totfact> 0.24867689E+05</totfact>
</mgrwt>
</event>
<event>
 3      1 +4.2044000e+04 9.11880000e+01 7.54677100e-03 1.30000000e-01
        3 -1    0    0  501    0 +0.0000000000e+00 +0.0000000000e+00 +1.2602142889e+02 1.2602142889e+02 0.0000000000e+00 0.0000e+00 -1.0000e+00
       -3 -1    0    0    0  501 -0.0000000000e+00 -0.0000000000e+00 -1.6495709138e+01 1.6495709138e+01 0.0000000000e+00 0.0000e+00 1.0000e+00
       23  1    1    2    0    0 +0.0000000000e+00 +0.0000000000e+00 +1.0952571975e+02 1.4251713802e+02 9.1188000000e+01 0.0000e+00 -1.0000e+00
<mgrwt>
<rscale>  0 0.91188000E+02</rscale>
<asrwt>0</asrwt>
<pdfrwt beam="1">  1        3 0.19387912E-01 0.91188000E+02</pdfrwt>
<pdfrwt beam="2">  1       -3 0.25378015E-02 0.91188000E+02</pdfrwt>
<totfact> 0.31760575E+04</totfact>
</mgrwt>
</event>
<event>
 3      1 +4.2044000e+04 9.11880000e+01 7.54677100e-03 1.30000000e-01
        2 -1    0    0  501    0 +0.0000000000e+00 +0.0000000000e+00 +8.5163406165e+02 8.5163406165e+02 0.0000000000e+00 0.0000e+00 -1.0000e+00
       -2 -1    0    0    0  501 -0.0000000000e+00 -0.0000000000e+00 -2.4409695779e+00 2.4409695779e+00 0.0000000000e+00 0.0000e+00 1.0000e+00
       23  1    1    2    0    0 +0.0000000000e+00 +0.0000000000e+00 +8.4919309207e+02 8.5407503123e+02 9.1188000000e+01 0.0000e+00 -1.0000e+00
<mgrwt>
<rscale>  0 0.91188000E+02</rscale>
<asrwt>0</asrwt>
<pdfrwt beam="1">  1        2 0.13102039E+00 0.91188000E+02</pdfrwt>
<pdfrwt beam="2">  1       -2 0.37553446E-03 0.91188000E+02</pdfrwt>
<totfact> 0.24611109E+05</totfact>
</mgrwt>
</event>
<event>
 3      1 +4.2044000e+04 9.11880000e+01 7.54677100e-03 1.30000000e-01
       -3 -1    0    0    0  501 -0.0000000000e+00 +0.0000000000e+00 +7.8981664023e+00 7.8981664023e+00 0.0000000000e+00 0.0000e+00 1.0000e+00
        3 -1    0    0  501    0 +0.0000000000e+00 -0.0000000000e+00 -2.6320195475e+02 2.6320195475e+02 0.0000000000e+00 0.0000e+00 -1.0000e+00
       23  1    1    2    0    0 +0.0000000000e+00 -0.0000000000e+00 -2.5530378834e+02 2.7110012115e+02 9.1188000000e+01 0.0000e+00 1.0000e+00
<mgrwt>
<rscale>  0 0.91188000E+02</rscale>
<asrwt>0</asrwt>
<pdfrwt beam="2">  1        3 0.40492607E-01 0.91188000E+02</pdfrwt>
<pdfrwt beam="1">  1       -3 0.12151026E-02 0.91188000E+02</pdfrwt>
<totfact> 0.25185891E+04</totfact>
</mgrwt>
</event>
<event>
 3      1 +4.2044000e+04 9.11880000e+01 7.54677100e-03 1.30000000e-01
        1 -1    0    0  501    0 +0.0000000000e+00 +0.0000000000e+00 +1.2336811549e+02 1.2336811549e+02 0.0000000000e+00 0.0000e+00 -1.0000e+00
       -1 -1    0    0    0  501 -0.0000000000e+00 -0.0000000000e+00 -1.6850487079e+01 1.6850487079e+01 0.0000000000e+00 0.0000e+00 1.0000e+00
       23  1    1    2    0    0 +0.0000000000e+00 +0.0000000000e+00 +1.0651762841e+02 1.4021860257e+02 9.1188000000e+01 0.0000e+00 -1.0000e+00
<mgrwt>
<rscale>  0 0.91188000E+02</rscale>
<asrwt>0</asrwt>
<pdfrwt beam="1">  1        1 0.18979710E-01 0.91188000E+02</pdfrwt>
<pdfrwt beam="2">  1       -1 0.25923827E-02 0.91188000E+02</pdfrwt>
<totfact> 0.10822486E+05</totfact>
</mgrwt>
</event>
<event>
 3      1 +4.2044000e+04 9.11880000e+01 7.54677100e-03 1.30000000e-01
        1 -1    0    0  501    0 +0.0000000000e+00 +0.0000000000e+00 +2.2955094713e+02 2.2955094713e+02 0.0000000000e+00 0.0000e+00 -1.0000e+00
       -1 -1    0    0    0  501 -0.0000000000e+00 -0.0000000000e+00 -9.0559976422e+00 9.0559976422e+00 0.0000000000e+00 0.0000e+00 1.0000e+00
       23  1    1    2    0    0 +0.0000000000e+00 +0.0000000000e+00 +2.2049494949e+02 2.3860694477e+02 9.1188000000e+01 0.0000e+00 -1.0000e+00
<mgrwt>
<rscale>  0 0.91188000E+02</rscale>
<asrwt>0</asrwt>
<pdfrwt beam="1">  1        1 0.35315526E-01 0.91188000E+02</pdfrwt>
<pdfrwt beam="2">  1       -1 0.13932306E-02 0.91188000E+02</pdfrwt>
<totfact> 0.12158865E+05</totfact>
</mgrwt>
</event>
<event>
 3      1 +4.2044000e+04 9.11880000e+01 7.54677100e-03 1.30000000e-01
       -1 -1    0    0    0  501 -0.0000000000e+00 +0.0000000000e+00 +3.0852584805e+02 3.0852584805e+02 0.0000000000e+00 0.0000e+00 1.0000e+00
        1 -1    0    0  501    0 +0.0000000000e+00 -0.0000000000e+00 -6.7378887348e+00 6.7378887348e+00 0.0000000000e+00 0.0000e+00 -1.0000e+00
       23  1    1    2    0    0 +0.0000000000e+00 -0.0000000000e+00 +3.0178795932e+02 3.1526373679e+02 9.1188000000e+01 0.0000e+00 1.0000e+00
<mgrwt>
<rscale>  0 0.91188000E+02</rscale>
<asrwt>0</asrwt>
<pdfrwt beam="2">  1        1 0.10365985E-02 0.91188000E+02</pdfrwt>
<pdfrwt beam="1">  1       -1 0.47465504E-01 0.91188000E+02</pdfrwt>
<totfact> 0.59894723E+04</totfact>
</mgrwt>
</event>
<event>
 3      1 +4.2044000e+04 9.11880000e+01 7.54677100e-03 1.30000000e-01
       -1 -1    0    0    0  501 -0.0000000000e+00 +0.0000000000e+00 +1.1928961914e+00 1.1928961914e+00 0.0000000000e+00 0.0000e+00 1.0000e+00
        1 -1    0    0  501    0 +0.0000000000e+00 -0.0000000000e+00 -1.7426603011e+03 1.7426603011e+03 0.0000000000e+00 0.0000e+00 -1.0000e+00
       23  1    1    2    0    0 +0.0000000000e+00 -0.0000000000e+00 -1.7414674049e+03 1.7438531972e+03 9.1188000000e+01 0.0000e+00 1.0000e+00
<mgrwt>
<rscale>  0 0.91188000E+02</rscale>
<asrwt>0</asrwt>
<pdfrwt beam="2">  1        1 0.26810204E+00 0.91188000E+02</pdfrwt>
<pdfrwt beam="1">  1       -1 0.18352218E-03 0.91188000E+02</pdfrwt>
<totfact> 0.95511605E+04</totfact>
</mgrwt>
</event>
<event>
 3      1 +4.2044000e+04 9.11880000e+01 7.54677100e-03 1.30000000e-01
        2 -1    0    0  501    0 +0.0000000000e+00 +0.0000000000e+00 +2.4254891950e+02 2.4254891950e+02 0.0000000000e+00 0.0000e+00 -1.0000e+00
       -2 -1    0    0    0  501 -0.0000000000e+00 -0.0000000000e+00 -8.5706951004e+00 8.5706951004e+00 0.0000000000e+00 0.0000e+00 1.0000e+00
       23  1    1    2    0    0 +0.0000000000e+00 +0.0000000000e+00 +2.3397822440e+02 2.5111961460e+02 9.1188000000e+01 0.0000e+00 -1.0000e+00
<mgrwt>
<rscale>  0 0.91188000E+02</rscale>
<asrwt>0</asrwt>
<pdfrwt beam="1">  1        2 0.37315213E-01 0.91188000E+02</pdfrwt>
<pdfrwt beam="2">  1       -2 0.13185687E-02 0.91188000E+02</pdfrwt>
<totfact> 0.16593860E+05</totfact>
</mgrwt>
</event>
<event>
 3      1 +4.2044000e+04 9.11880000e+01 7.54677100e-03 1.30000000e-01
        1 -1    0    0  501    0 +0.0000000000e+00 +0.0000000000e+00 +8.1865106197e+02 8.1865106197e+02 0.0000000000e+00 0.0000e+00 -1.0000e+00
       -1 -1    0    0    0  501 -0.0000000000e+00 -0.0000000000e+00 -2.5393148956e+00 2.5393148956e+00 0.0000000000e+00 0.0000e+00 1.0000e+00
       23  1    1    2    0    0 +0.0000000000e+00 +0.0000000000e+00 +8.1611174708e+02 8.2119037687e+02 9.1188000000e+01 0.0000e+00 -1.0000e+00
<mgrwt>
<rscale>  0 0.91188000E+02</rscale>
<asrwt>0</asrwt>
<pdfrwt beam="1">  1        1 0.12594611E+00 0.91188000E+02</pdfrwt>
<pdfrwt beam="2">  1       -1 0.39066448E-03 0.91188000E+02</pdfrwt>
<totfact> 0.14094440E+05</totfact>
</mgrwt>
</event>
<event>
 3      1 +4.2044000e+04 9.11880000e+01 7.54677100e-03 1.30000000e-01
       -2 -1    0    0    0  501 -0.0000000000e+00 +0.0000000000e+00 +7.2394456014e-01 7.2394456014e-01 0.0000000000e+00 0.0000e+00 1.0000e+00
        2 -1    0    0  501    0 +0.0000000000e+00 -0.0000000000e+00 -2.8715083315e+03 2.8715083315e+03 0.0000000000e+00 0.0000e+00 -1.0000e+00
       23  1    1    2    0    0 +0.0000000000e+00 -0.0000000000e+00 -2.8707843870e+03 2.8722322761e+03 9.1188000000e+01 0.0000e+00 1.0000e+00
<mgrwt>
<rscale>  0 0.91188000E+02</rscale>
<asrwt>0</asrwt>
<pdfrwt beam="2">  1        2 0.44177537E+00 0.91188000E+02</pdfrwt>
<pdfrwt beam="1">  1       -2 0.11137486E-03 0.91188000E+02</pdfrwt>
<totfact> 0.11328935E+05</totfact>
</mgrwt>
</event>
<event>
 3      1 +4.2044000e+04 9.11880000e+01 7.54677100e-03 1.30000000e-01
        1 -1    0    0  501    0 +0.0000000000e+00 +0.0000000000e+00 +2.5410434248e+03 2.5410434248e+03 0.0000000000e+00 0.0000e+00 -1.0000e+00
       -1 -1    0    0    0  501 -0.0000000000e+00 -0.0000000000e+00 -8.1809417963e-01 8.1809417963e-01 0.0000000000e+00 0.0000e+00 1.0000e+00
       23  1    1    2    0    0 +0.0000000000e+00 +0.0000000000e+00 +2.5402253306e+03 2.5418615189e+03 9.1188000000e+01 0.0000e+00 -1.0000e+00
<mgrwt>
<rscale>  0 0.91188000E+02</rscale>
<asrwt>0</asrwt>
<pdfrwt beam="1">  1        1 0.39092344E+00 0.91188000E+02</pdfrwt>
<pdfrwt beam="2">  1       -1 0.12586268E-03 0.91188000E+02</pdfrwt>
<totfact> 0.50315042E+04</totfact>
</mgrwt>
</event>
<event>
 3      1 +4.2044000e+04 9.11880000e+01 7.54677100e-03 1.30000000e-01
       -1 -1    0    0    0  501 -0.0000000000e+00 +0.0000000000e+00 +1.6369086098e+00 1.6369086098e+00 0.0000000000e+00 0.0000e+00 -1.0000e+00
        1 -1    0    0  501    0 +0.0000000000e+00 -0.0000000000e+00 -1.2699626745e+03 1.2699626745e+03 0.0000000000e+00 0.0000e+00 1.0000e+00
       23  1    1    2    0    0 +0.0000000000e+00 -0.0000000000e+00 -1.2683257659e+03 1.2715995831e+03 9.1188000000e+01 0.0000e+00 -1.0000e+00
<mgrwt>
<rscale>  0 0.91188000E+02</rscale>
<asrwt>0</asrwt>
<pdfrwt beam="2">  1        1 0.19537922E+00 0.91188000E+02</pdfrwt>
<pdfrwt beam="1">  1       -1 0.25183165E-03 0.91188000E+02</pdfrwt>
<totfact> 0.12364794E+05</totfact>
</mgrwt>
</event>
<event>
 3      1 +4.2044000e+04 9.11880000e+01 7.54677100e-03 1.30000000e-01
        1 -1    0    0  501    0 +0.0000000000e+00 +0.0000000000e+00 +2.7214094947e+02 2.7214094947e+02 0.0000000000e+00 0.0000e+00 -1.0000e+00
       -1 -1    0    0    0  501 -0.0000000000e+00 -0.0000000000e+00 -7.6387358832e+00 7.6387358832e+00 0.0000000000e+00 0.0000e+00 1.0000e+00
       23  1    1    2    0    0 +0.0000000000e+00 +0.0000000000e+00 +2.6450221358e+02 2.7977968535e+02 9.1188000000e+01 0.0000e+00 -1.0000e+00
<mgrwt>
<rscale>  0 0.91188000E+02</rscale>
<asrwt>0</asrwt>
<pdfrwt beam="1">  1        1 0.41867831E-01 0.91188000E+02</pdfrwt>
<pdfrwt beam="2">  1       -1 0.11751903E-02 0.91188000E+02</pdfrwt>
<totfact> 0.12569460E+05</totfact>
</mgrwt>
</event>
<event>
 3      1 +4.2044000e+04 9.11880000e+01 7.54677100e-03 1.30000000e-01
        2 -1    0    0  501    0 +0.0000000000e+00 +0.0000000000e+00 +7.0380077548e+00 7.0380077548e+00 0.0000000000e+00 0.0000e+00 -1.0000e+00
       -2 -1    0    0    0  501 -0.0000000000e+00 -0.0000000000e+00 -2.9536950064e+02 2.9536950064e+02 0.0000000000e+00 0.0000e+00 1.0000e+00
       23  1    1    2    0    0 +0.0000000000e+00 +0.0000000000e+00 -2.8833149288e+02 3.0240750839e+02 9.1188000000e+01 0.0000e+00 -1.0000e+00
<mgrwt>
<rscale>  0 0.91188000E+02</rscale>
<asrwt>0</asrwt>
<pdfrwt beam="1">  1        2 0.10827702E-02 0.91188000E+02</pdfrwt>
<pdfrwt beam="2">  1       -2 0.45441471E-01 0.91188000E+02</pdfrwt>
<totfact> 0.51430871E+04</totfact>
</mgrwt>
</event>
<event>
 3      1 +4.2044000e+04 9.11880000e+01 7.54677100e-03 1.30000000e-01
        1 -1    0    0  501    0 +0.0000000000e+00 +0.0000000000e+00 +1.2753387667e+01 1.2753387667e+01 0.0000000000e+00 0.0000e+00 -1.0000e+00
       -1 -1    0    0    0  501 -0.0000000000e+00 -0.0000000000e+00 -1.6300083478e+02 1.6300083478e+02 0.0000000000e+00 0.0000e+00 1.0000e+00
       23  1    1    2    0    0 +0.0000000000e+00 +0.0000000000e+00 -1.5024744711e+02 1.7575422245e+02 9.1188000000e+01 0.0000e+00 -1.0000e+00
<mgrwt>
<rscale>  0 0.91188000E+02</rscale>
<asrwt>0</asrwt>
<pdfrwt beam="1">  1        1 0.19620596E-02 0.91188000E+02</pdfrwt>
<pdfrwt beam="2">  1       -1 0.25077053E-01 0.91188000E+02</pdfrwt>
<totfact> 0.73284257E+04</totfact>
</mgrwt>
</event>
<event>
 3      1 +4.2044000e+04 9.11880000e+01 7.54677100e-03 1.30000000e-01
       -2 -1    0    0    0  501 -0.0000000000e+00 +0.0000000000e+00 +1.8802084009e+00 1.8802084009e+00 0.0000000000e+00 0.0000e+00 1.0000e+00
        2 -1    0    0  501    0 +0.0000000000e+00 -0.0000000000e+00 -1.1056289478e+03 1.1056289478e+03 0.0000000000e+00 0.0000e+00 -1.0000e+00
       23  1    1    2    0    0 +0.0000000000e+00 -0.0000000000e+00 -1.1037487394e+03 1.1075091562e+03 9.1188000000e+01 0.0000e+00 1.0000e+00
<mgrwt>
<rscale>  0 0.91188000E+02</rscale>
<asrwt>0</asrwt>
<pdfrwt beam="2">  1        2 0.17009653E+00 0.91188000E+02</pdfrwt>
<pdfrwt beam="1">  1       -2 0.28926323E-03 0.91188000E+02</pdfrwt>
<totfact> 0.25006715E+05</totfact>
</mgrwt>
</event>
<event>
 3      1 +4.2044000e+04 9.11880000e+01 7.54677100e-03 1.30000000e-01
       -2 -1    0    0    0  501 -0.0000000000e+00 +0.0000000000e+00 +2.0325623192e+00 2.0325623192e+00 0.0000000000e+00 0.0000e+00 1.0000e+00
        2 -1    0    0  501    0 +0.0000000000e+00 -0.0000000000e+00 -1.0227547841e+03 1.0227547841e+03 0.0000000000e+00 0.0000e+00 -1.0000e+00
       23  1    1    2    0    0 +0.0000000000e+00 -0.0000000000e+00 -1.0207222218e+03 1.0247873464e+03 9.1188000000e+01 0.0000e+00 1.0000e+00
<mgrwt>
<rscale>  0 0.91188000E+02</rscale>
<asrwt>0</asrwt>
<pdfrwt beam="2">  1        2 0.15734681E+00 0.91188000E+02</pdfrwt>
<pdfrwt beam="1">  1       -2 0.31270205E-03 0.91188000E+02</pdfrwt>
<totfact> 0.25013221E+05</totfact>
</mgrwt>
</event>
<event>
 3      1 +4.2044000e+04 9.11880000e+01 7.54677100e-03 1.30000000e-01
       -3 -1    0    0    0  501 -0.0000000000e+00 +0.0000000000e+00 +1.2216030408e+01 1.2216030408e+01 0.0000000000e+00 0.0000e+00 1.0000e+00
        3 -1    0    0  501    0 +0.0000000000e+00 -0.0000000000e+00 -1.7017089566e+02 1.7017089566e+02 0.0000000000e+00 0.0000e+00 -1.0000e+00
       23  1    1    2    0    0 +0.0000000000e+00 -0.0000000000e+00 -1.5795486526e+02 1.8238692607e+02 9.1188000000e+01 0.0000e+00 1.0000e+00
<mgrwt>
<rscale>  0 0.91188000E+02</rscale>
<asrwt>0</asrwt>
<pdfrwt beam="2">  1        3 0.26180137E-01 0.91188000E+02</pdfrwt>
<pdfrwt beam="1">  1       -3 0.18793894E-02 0.91188000E+02</pdfrwt>
<totfact> 0.29425348E+04</totfact>
</mgrwt>
</event>
<event>
 3      1 +4.2044000e+04 9.11880000e+01 7.54677100e-03 1.30000000e-01
        3 -1    0    0  501    0 +0.0000000000e+00 +0.0000000000e+00 +5.1935627865e+02 5.1935627865e+02 0.0000000000e+00 0.0000e+00 -1.0000e+00
       -3 -1    0    0    0  501 -0.0000000000e+00 -0.0000000000e+00 -4.0026720027e+00 4.0026720027e+00 0.0000000000e+00 0.0000e+00 1.0000e+00
       23  1    1    2    0    0 +0.0000000000e+00 +0.0000000000e+00 +5.1535360665e+02 5.2335895065e+02 9.1188000000e+01 0.0000e+00 -1.0000e+00
<mgrwt>
<rscale>  0 0.91188000E+02</rscale>
<asrwt>0</asrwt>
<pdfrwt beam="1">  1        3 0.79900913E-01 0.91188000E+02</pdfrwt>
<pdfrwt beam="2">  1       -3 0.61579610E-03 0.91188000E+02</pdfrwt>
<totfact> 0.17354995E+04</totfact>
</mgrwt>
</event>
<event>
 3      1 +4.2044000e+04 9.11880000e+01 7.54677100e-03 1.30000000e-01
       -1 -1    0    0    0  501 -0.0000000000e+00 +0.0000000000e+00 +5.9423294310e+01 5.9423294310e+01 0.0000000000e+00 0.0000e+00 1.0000e+00
        1 -1    0    0  501    0 +0.0000000000e+00 -0.0000000000e+00 -3.4983130103e+01 3.4983130103e+01 0.0000000000e+00 0.0000e+00 -1.0000e+00
       23  1    1    2    0    0 +0.0000000000e+00 -0.0000000000e+00 +2.4440164207e+01 9.4406424413e+01 9.1188000000e+01 0.0000e+00 1.0000e+00
<mgrwt>
<rscale>  0 0.91188000E+02</rscale>
<asrwt>0</asrwt>
<pdfrwt beam="2">  1        1 0.53820200E-02 0.91188000E+02</pdfrwt>
<pdfrwt beam="1">  1       -1 0.91420453E-02 0.91188000E+02</pdfrwt>
<totfact> 0.88786350E+04</totfact>
</mgrwt>
</event>
<event>
 3      1 +4.2044000e+04 9.11880000e+01 7.54677100e-03 1.30000000e-01
       -1 -1    0    0    0  501 -0.0000000000e+00 +0.0000000000e+00 +7.9886131720e+01 7.9886131720e+01 0.0000000000e+00 0.0000e+00 1.0000e+00
        1 -1    0    0  501    0 +0.0000000000e+00 -0.0000000000e+00 -2.6022199238e+01 2.6022199238e+01 0.0000000000e+00 0.0000e+00 -1.0000e+00
       23  1    1    2    0    0 +0.0000000000e+00 -0.0000000000e+00 +5.3863932482e+01 1.0590833096e+02 9.1188000000e+01 0.0000e+00 1.0000e+00
<mgrwt>
<rscale>  0 0.91188000E+02</rscale>
<asrwt>0</asrwt>
<pdfrwt beam="2">  1        1 0.40034153E-02 0.91188000E+02</pdfrwt>
<pdfrwt beam="1">  1       -1 0.12290174E-01 0.91188000E+02</pdfrwt>
<totfact> 0.84644453E+04</totfact>
</mgrwt>
</event>
<event>
 3      1 +4.2044000e+04 9.11880000e+01 7.54677100e-03 1.30000000e-01
        1 -1    0    0  501    0 +0.0000000000e+00 +0.0000000000e+00 +1.0298745270e+01 1.0298745270e+01 0.0000000000e+00 0.0000e+00 -1.0000e+00
       -1 -1    0    0    0  501 -0.0000000000e+00 -0.0000000000e+00 -2.0185107811e+02 2.0185107811e+02 0.0000000000e+00 0.0000e+00 1.0000e+00
       23  1    1    2    0    0 +0.0000000000e+00 +0.0000000000e+00 -1.9155233284e+02 2.1214982338e+02 9.1188000000e+01 0.0000e+00 -1.0000e+00
<mgrwt>
<rscale>  0 0.91188000E+02</rscale>
<asrwt>0</asrwt>
<pdfrwt beam="1">  1        1 0.15844224E-02 0.91188000E+02</pdfrwt>
<pdfrwt beam="2">  1       -1 0.31054012E-01 0.91188000E+02</pdfrwt>
<totfact> 0.69219146E+04</totfact>
</mgrwt>
</event>
<event>
 3      1 +4.2044000e+04 9.11880000e+01 7.54677100e-03 1.30000000e-01
        2 -1    0    0  501    0 +0.0000000000e+00 +0.0000000000e+00 +6.2572935438e+02 6.2572935438e+02 0.0000000000e+00 0.0000e+00 -1.0000e+00
       -2 -1    0    0    0  501 -0.0000000000e+00 -0.0000000000e+00 -3.3222236123e+00 3.3222236123e+00 0.0000000000e+00 0.0000e+00 1.0000e+00
       23  1    1    2    0    0 +0.0000000000e+00 +0.0000000000e+00 +6.2240713077e+02 6.2905157799e+02 9.1188000000e+01 0.0000e+00 -1.0000e+00
<mgrwt>
<rscale>  0 0.91188000E+02</rscale>
<asrwt>0</asrwt>
<pdfrwt beam="1">  1        2 0.96265961E-01 0.91188000E+02</pdfrwt>
<pdfrwt beam="2">  1       -2 0.51111182E-03 0.91188000E+02</pdfrwt>
<totfact> 0.23044360E+05</totfact>
</mgrwt>
</event>
<event>
 3      1 +4.2044000e+04 9.11880000e+01 7.54677100e-03 1.30000000e-01
        2 -1    0    0  501    0 +0.0000000000e+00 +0.0000000000e+00 +5.5877124315e+01 5.5877124315e+01 0.0000000000e+00 0.0000e+00 -1.0000e+00
       -2 -1    0    0    0  501 -0.0000000000e+00 -0.0000000000e+00 -3.7203289566e+01 3.7203289566e+01 0.0000000000e+00 0.0000e+00 1.0000e+00
       23  1    1    2    0    0 +0.0000000000e+00 +0.0000000000e+00 +1.8673834749e+01 9.3080413881e+01 9.1188000000e+01 0.0000e+00 -1.0000e+00
<mgrwt>
<rscale>  0 0.91188000E+02</rscale>
<asrwt>0</asrwt>
<pdfrwt beam="1">  1        2 0.85964806E-02 0.91188000E+02</pdfrwt>
<pdfrwt beam="2">  1       -2 0.57235830E-02 0.91188000E+02</pdfrwt>
<totfact> 0.10403930E+05</totfact>
</mgrwt>
</event>
<event>
 3      1 +4.2044000e+04 9.11880000e+01 7.54677100e-03 1.30000000e-01
       -1 -1    0    0    0  501 -0.0000000000e+00 +0.0000000000e+00 +2.5581825858e+01 2.5581825858e+01 0.0000000000e+00 0.0000e+00 1.0000e+00
        1 -1    0    0  501    0 +0.0000000000e+00 -0.0000000000e+00 -8.1261316043e+01 8.1261316043e+01 0.0000000000e+00 0.0000e+00 -1.0000e+00
       23  1    1    2    0    0 +0.0000000000e+00 -0.0000000000e+00 -5.5679490185e+01 1.0684314190e+02 9.1188000000e+01 0.0000e+00 1.0000e+00
<mgrwt>
<rscale>  0 0.91188000E+02</rscale>
<asrwt>0</asrwt>
<pdfrwt beam="2">  1        1 0.12501741E-01 0.91188000E+02</pdfrwt>
<pdfrwt beam="1">  1       -1 0.39356655E-02 0.91188000E+02</pdfrwt>
<totfact> 0.10095969E+05</totfact>
</mgrwt>
</event>
<event>
 3      1 +4.2044000e+04 9.11880000e+01 7.54677100e-03 1.30000000e-01
        1 -1    0    0  501    0 +0.0000000000e+00 +0.0000000000e+00 +2.4702812133e+01 2.4702812133e+01 0.0000000000e+00 0.0000e+00 -1.0000e+00
       -1 -1    0    0    0  501 -0.0000000000e+00 -0.0000000000e+00 -8.4152882062e+01 8.4152882062e+01 0.0000000000e+00 0.0000e+00 1.0000e+00
       23  1    1    2    0    0 +0.0000000000e+00 +0.0000000000e+00 -5.9450069930e+01 1.0885569419e+02 9.1188000000e+01 0.0000e+00 -1.0000e+00
<mgrwt>
<rscale>  0 0.91188000E+02</rscale>
<asrwt>0</asrwt>
<pdfrwt beam="1">  1        1 0.38004326E-02 0.91188000E+02</pdfrwt>
<pdfrwt beam="2">  1       -1 0.12946597E-01 0.91188000E+02</pdfrwt>
<totfact> 0.83896130E+04</totfact>
</mgrwt>
</event>
<event>
 3      1 +4.2044000e+04 9.11880000e+01 7.54677100e-03 1.30000000e-01
       -2 -1    0    0    0  501 -0.0000000000e+00 +0.0000000000e+00 +3.5473667345e+00 3.5473667345e+00 0.0000000000e+00 0.0000e+00 1.0000e+00
        2 -1    0    0  501    0 +0.0000000000e+00 -0.0000000000e+00 -5.8601576650e+02 5.8601576650e+02 0.0000000000e+00 0.0000e+00 -1.0000e+00
       23  1    1    2    0    0 +0.0000000000e+00 -0.0000000000e+00 -5.8246839977e+02 5.8956313323e+02 9.1188000000e+01 0.0000e+00 1.0000e+00
<mgrwt>
<rscale>  0 0.91188000E+02</rscale>
<asrwt>0</asrwt>
<pdfrwt beam="2">  1        2 0.90156318E-01 0.91188000E+02</pdfrwt>
<pdfrwt beam="1">  1       -2 0.54574845E-03 0.91188000E+02</pdfrwt>
<totfact> 0.22624138E+05</totfact>
</mgrwt>
</event>
<event>
 3      1 +4.2044000e+04 9.11880000e+01 7.54677100e-03 1.30000000e-01
        1 -1    0    0  501    0 +0.0000000000e+00 +0.0000000000e+00 +2.0489321125e+02 2.0489321125e+02 0.0000000000e+00 0.0000e+00 -1.0000e+00
       -1 -1    0    0    0  501 -0.0000000000e+00 -0.0000000000e+00 -1.0145835596e+01 1.0145835596e+01 0.0000000000e+00 0.0000e+00 1.0000e+00
       23  1    1    2    0    0 +0.0000000000e+00 +0.0000000000e+00 +1.9474737565e+02 2.1503904685e+02 9.1188000000e+01 0.0000e+00 -1.0000e+00
<mgrwt>
<rscale>  0 0.91188000E+02</rscale>
<asrwt>0</asrwt>
<pdfrwt beam="1">  1        1 0.31522029E-01 0.91188000E+02</pdfrwt>
<pdfrwt beam="2">  1       -1 0.15608979E-02 0.91188000E+02</pdfrwt>
<totfact> 0.11892395E+05</totfact>
</mgrwt>
</event>
<event>
 3      1 +4.2044000e+04 9.11880000e+01 7.54677100e-03 1.30000000e-01
       -1 -1    0    0    0  501 -0.0000000000e+00 +0.0000000000e+00 +3.0604123023e+01 3.0604123023e+01 0.0000000000e+00 0.0000e+00 1.0000e+00
        1 -1    0    0  501    0 +0.0000000000e+00 -0.0000000000e+00 -6.7925907711e+01 6.7925907711e+01 0.0000000000e+00 0.0000e+00 -1.0000e+00
       23  1    1    2    0    0 +0.0000000000e+00 -0.0000000000e+00 -3.7321784688e+01 9.8530030733e+01 9.1188000000e+01 0.0000e+00 1.0000e+00
<mgrwt>
<rscale>  0 0.91188000E+02</rscale>
<asrwt>0</asrwt>
<pdfrwt beam="2">  1        1 0.10450139E-01 0.91188000E+02</pdfrwt>
<pdfrwt beam="1">  1       -1 0.47083267E-02 0.91188000E+02</pdfrwt>
<totfact> 0.98177810E+04</totfact>
</mgrwt>
</event>
<event>
 3      1 +4.2044000e+04 9.11880000e+01 7.54677100e-03 1.30000000e-01
       -2 -1    0    0    0  501 -0.0000000000e+00 +0.0000000000e+00 +6.9409948148e-01 6.9409948148e-01 0.0000000000e+00 0.0000e+00 1.0000e+00
        2 -1    0    0  501    0 +0.0000000000e+00 -0.0000000000e+00 -2.9949782293e+03 2.9949782293e+03 0.0000000000e+00 0.0000e+00 -1.0000e+00
       23  1    1    2    0    0 +0.0000000000e+00 -0.0000000000e+00 -2.9942841298e+03 2.9956723288e+03 9.1188000000e+01 0.0000e+00 1.0000e+00
<mgrwt>
<rscale>  0 0.91188000E+02</rscale>
<asrwt>0</asrwt>
<pdfrwt beam="2">  1        2 0.46076814E+00 0.91188000E+02</pdfrwt>
<pdfrwt beam="1">  1       -2 0.10678401E-03 0.91188000E+02</pdfrwt>
<totfact> 0.10231413E+05</totfact>
</mgrwt>
</event>
<event>
 3      1 +4.2044000e+04 9.11880000e+01 7.54677100e-03 1.30000000e-01
       -2 -1    0    0    0  501 -0.0000000000e+00 +0.0000000000e+00 +1.6228386032e+03 1.6228386032e+03 0.0000000000e+00 0.0000e+00 1.0000e+00
        2 -1    0    0  501    0 +0.0000000000e+00 -0.0000000000e+00 -1.2809732477e+00 1.2809732477e+00 0.0000000000e+00 0.0000e+00 -1.0000e+00
       23  1    1    2    0    0 +0.0000000000e+00 -0.0000000000e+00 +1.6215576299e+03 1.6241195764e+03 9.1188000000e+01 0.0000e+00 1.0000e+00
<mgrwt>
<rscale>  0 0.91188000E+02</rscale>
<asrwt>0</asrwt>
<pdfrwt beam="2">  1        2 0.19707411E-03 0.91188000E+02</pdfrwt>
<pdfrwt beam="1">  1       -2 0.24966583E+00 0.91188000E+02</pdfrwt>
<totfact> 0.92052000E+03</totfact>
</mgrwt>
</event>
<event>
 3      1 +4.2044000e+04 9.11880000e+01 7.54677100e-03 1.30000000e-01
       -1 -1    0    0    0  501 -0.0000000000e+00 +0.0000000000e+00 +1.2983163616e+02 1.2983163616e+02 0.0000000000e+00 0.0000e+00 1.0000e+00
        1 -1    0    0  501    0 +0.0000000000e+00 -0.0000000000e+00 -1.6011604702e+01 1.6011604702e+01 0.0000000000e+00 0.0000e+00 -1.0000e+00
       23  1    1    2    0    0 +0.0000000000e+00 -0.0000000000e+00 +1.1382003146e+02 1.4584324086e+02 9.1188000000e+01 0.0000e+00 1.0000e+00
<mgrwt>
<rscale>  0 0.91188000E+02</rscale>
<asrwt>0</asrwt>
<pdfrwt beam="2">  1        1 0.24633239E-02 0.91188000E+02</pdfrwt>
<pdfrwt beam="1">  1       -1 0.19974097E-01 0.91188000E+02</pdfrwt>
<totfact> 0.77221757E+04</totfact>
</mgrwt>
</event>
<event>
 3      1 +4.2044000e+04 9.11880000e+01 7.54677100e-03 1.30000000e-01
       -2 -1    0    0    0  501 -0.0000000000e+00 +0.0000000000e+00 +4.9802396660e+00 4.9802396660e+00 0.0000000000e+00 0.0000e+00 1.0000e+00
        2 -1    0    0  501    0 +0.0000000000e+00 -0.0000000000e+00 -4.1741220813e+02 4.1741220813e+02 0.0000000000e+00 0.0000e+00 -1.0000e+00
       23  1    1    2    0    0 +0.0000000000e+00 -0.0000000000e+00 -4.1243196846e+02 4.2239244780e+02 9.1188000000e+01 0.0000e+00 1.0000e+00
<mgrwt>
<rscale>  0 0.91188000E+02</rscale>
<asrwt>0</asrwt>
<pdfrwt beam="2">  1        2 0.64217275E-01 0.91188000E+02</pdfrwt>
<pdfrwt beam="1">  1       -2 0.76619057E-03 0.91188000E+02</pdfrwt>
<totfact> 0.20260332E+05</totfact>
</mgrwt>
</event>
<event>
 3      1 +4.2044000e+04 9.11880000e+01 7.54677100e-03 1.30000000e-01
        1 -1    0    0  501    0 +0.0000000000e+00 +0.0000000000e+00 +1.2539064536e+03 1.2539064536e+03 0.0000000000e+00 0.0000e+00 -1.0000e+00
       -1 -1    0    0    0  501 -0.0000000000e+00 -0.0000000000e+00 -1.6578691577e+00 1.6578691577e+00 0.0000000000e+00 0.0000e+00 1.0000e+00
       23  1    1    2    0    0 +0.0000000000e+00 +0.0000000000e+00 +1.2522485844e+03 1.2555643228e+03 9.1188000000e+01 0.0000e+00 -1.0000e+00
<mgrwt>
<rscale>  0 0.91188000E+02</rscale>
<asrwt>0</asrwt>
<pdfrwt beam="1">  1        1 0.19290793E+00 0.91188000E+02</pdfrwt>
<pdfrwt beam="2">  1       -1 0.25505780E-03 0.91188000E+02</pdfrwt>
<totfact> 0.12449790E+05</totfact>
</mgrwt>
</event>
<event>
 3      1 +4.2044000e+04 9.11880000e+01 7.54677100e-03 1.30000000e-01
        2 -1    0    0  501    0 +0.0000000000e+00 +0.0000000000e+00 +1.4915618460e+03 1.4915618460e+03 0.0000000000e+00 0.0000e+00 -1.0000e+00
       -2 -1    0    0    0  501 -0.0000000000e+00 -0.0000000000e+00 -1.3937154812e+00 1.3937154812e+00 0.0000000000e+00 0.0000e+00 1.0000e+00
       23  1    1    2    0    0 +0.0000000000e+00 +0.0000000000e+00 +1.4901681305e+03 1.4929555615e+03 9.1188000000e+01 0.0000e+00 -1.0000e+00
<mgrwt>
<rscale>  0 0.91188000E+02</rscale>
<asrwt>0</asrwt>
<pdfrwt beam="1">  1        2 0.22946978E+00 0.91188000E+02</pdfrwt>
<pdfrwt beam="2">  1       -2 0.21441896E-03 0.91188000E+02</pdfrwt>
<totfact> 0.23638780E+05</totfact>
</mgrwt>
</event>
<event>
 3      1 +4.2044000e+04 9.11880000e+01 7.54677100e-03 1.30000000e-01
        2 -1    0    0  501    0 +0.0000000000e+00 +0.0000000000e+00 +1.1437151150e+03 1.1437151150e+03 0.0000000000e+00 0.0000e+00 -1.0000e+00
       -2 -1    0    0    0  501 -0.0000000000e+00 -0.0000000000e+00 -1.8175967151e+00 1.8175967151e+00 0.0000000000e+00 0.0000e+00 1.0000e+00
       23  1    1    2    0    0 +0.0000000000e+00 +0.0000000000e+00 +1.1418975183e+03 1.1455327117e+03 9.1188000000e+01 0.0000e+00 -1.0000e+00
<mgrwt>
<rscale>  0 0.91188000E+02</rscale>
<asrwt>0</asrwt>
<pdfrwt beam="1">  1        2 0.17595560E+00 0.91188000E+02</pdfrwt>
<pdfrwt beam="2">  1       -2 0.27963118E-03 0.91188000E+02</pdfrwt>
<totfact> 0.24964598E+05</totfact>
</mgrwt>
</event>
<event>
 3      1 +4.2044000e+04 9.11880000e+01 7.54677100e-03 1.30000000e-01
        4 -1    0    0  501    0 +0.0000000000e+00 +0.0000000000e+00 +6.5793460209e+00 6.5793460209e+00 0.0000000000e+00 0.0000e+00 -1.0000e+00
       -4 -1    0    0    0  501 -0.0000000000e+00 -0.0000000000e+00 -3.1596040540e+02 3.1596040540e+02 0.0000000000e+00 0.0000e+00 1.0000e+00
       23  1    1    2    0    0 +0.0000000000e+00 +0.0000000000e+00 -3.0938105938e+02 3.2253975142e+02 9.1188000000e+01 0.0000e+00 -1.0000e+00
<mgrwt>
<rscale>  0 0.91188000E+02</rscale>
<asrwt>0</asrwt>
<pdfrwt beam="1">  1        4 0.10122071E-02 0.91188000E+02</pdfrwt>
<pdfrwt beam="2">  1       -4 0.48609292E-01 0.91188000E+02</pdfrwt>
<totfact> 0.17148471E+04</totfact>
</mgrwt>
</event>
<event>
 3      1 +4.2044000e+04 9.11880000e+01 7.54677100e-03 1.30000000e-01
       -1 -1    0    0    0  501 -0.0000000000e+00 +0.0000000000e+00 +1.6929457853e+02 1.6929457853e+02 0.0000000000e+00 0.0000e+00 1.0000e+00
        1 -1    0    0  501    0 +0.0000000000e+00 -0.0000000000e+00 -1.2279264073e+01 1.2279264073e+01 0.0000000000e+00 0.0000e+00 -1.0000e+00
       23  1    1    2    0    0 +0.0000000000e+00 -0.0000000000e+00 +1.5701531446e+02 1.8157384261e+02 9.1188000000e+01 0.0000e+00 1.0000e+00
<mgrwt>
<rscale>  0 0.91188000E+02</rscale>
<asrwt>0</asrwt>
<pdfrwt beam="2">  1        1 0.18891177E-02 0.91188000E+02</pdfrwt>
<pdfrwt beam="1">  1       -1 0.26045318E-01 0.91188000E+02</pdfrwt>
<totfact> 0.72591924E+04</totfact>
</mgrwt>
</event>
<event>
 3      1 +4.2044000e+04 9.11880000e+01 7.54677100e-03 1.30000000e-01
       -3 -1    0    0    0  501 -0.0000000000e+00 +0.0000000000e+00 +2.1134401801e+01 2.1134401801e+01 0.0000000000e+00 0.0000e+00 1.0000e+00
        3 -1    0    0  501    0 +0.0000000000e+00 -0.0000000000e+00 -9.8361564978e+01 9.8361564978e+01 0.0000000000e+00 0.0000e+00 -1.0000e+00
       23  1    1    2    0    0 +0.0000000000e+00 -0.0000000000e+00 -7.7227163178e+01 1.1949596678e+02 9.1188000000e+01 0.0000e+00 1.0000e+00
<mgrwt>
<rscale>  0 0.91188000E+02</rscale>
<asrwt>0</asrwt>
<pdfrwt beam="2">  1        3 0.15132549E-01 0.91188000E+02</pdfrwt>
<pdfrwt beam="1">  1       -3 0.32514463E-02 0.91188000E+02</pdfrwt>
<totfact> 0.33269697E+04</totfact>
</mgrwt>
</event>
<event>
 3      1 +4.2044000e+04 9.11880000e+01 7.54677100e-03 1.30000000e-01
        2 -1    0    0  501    0 +0.0000000000e+00 +0.0000000000e+00 +3.8442332753e+02 3.8442332753e+02 0.0000000000e+00 0.0000e+00 1.0000e+00
       -2 -1    0    0    0  501 -0.0000000000e+00 -0.0000000000e+00 -5.4076136569e+00 5.4076136569e+00 0.0000000000e+00 0.0000e+00 -1.0000e+00
       23  1    1    2    0    0 +0.0000000000e+00 +0.0000000000e+00 +3.7901571387e+02 3.8983094119e+02 9.1188000000e+01 0.0000e+00 1.0000e+00
<mgrwt>
<rscale>  0 0.91188000E+02</rscale>
<asrwt>0</asrwt>
<pdfrwt beam="1">  1        2 0.59142029E-01 0.91188000E+02</pdfrwt>
<pdfrwt beam="2">  1       -2 0.83194087E-03 0.91188000E+02</pdfrwt>
<totfact> 0.19673105E+05</totfact>
</mgrwt>
</event>
<event>
 3      1 +4.2044000e+04 9.11880000e+01 7.54677100e-03 1.30000000e-01
        1 -1    0    0  501    0 +0.0000000000e+00 +0.0000000000e+00 +1.3372331353e+03 1.3372331353e+03 0.0000000000e+00 0.0000e+00 -1.0000e+00
       -1 -1    0    0    0  501 -0.0000000000e+00 -0.0000000000e+00 -1.5545627618e+00 1.5545627618e+00 0.0000000000e+00 0.0000e+00 1.0000e+00
       23  1    1    2    0    0 +0.0000000000e+00 +0.0000000000e+00 +1.3356785725e+03 1.3387876981e+03 9.1188000000e+01 0.0000e+00 -1.0000e+00
<mgrwt>
<rscale>  0 0.91188000E+02</rscale>
<asrwt>0</asrwt>
<pdfrwt beam="1">  1        1 0.20572725E+00 0.91188000E+02</pdfrwt>
<pdfrwt beam="2">  1       -1 0.23916457E-03 0.91188000E+02</pdfrwt>
<totfact> 0.11997165E+05</totfact>
</mgrwt>
</event>
<event>
 3      1 +4.2044000e+04 9.11880000e+01 7.54677100e-03 1.30000000e-01
       -1 -1    0    0    0  501 -0.0000000000e+00 +0.0000000000e+00 +5.4684049436e+02 5.4684049436e+02 0.0000000000e+00 0.0000e+00 1.0000e+00
        1 -1    0    0  501    0 +0.0000000000e+00 -0.0000000000e+00 -3.8014976166e+00 3.8014976166e+00 0.0000000000e+00 0.0000e+00 -1.0000e+00
       23  1    1    2    0    0 +0.0000000000e+00 -0.0000000000e+00 +5.4303899674e+02 5.5064199198e+02 9.1188000000e+01 0.0000e+00 1.0000e+00
<mgrwt>
<rscale>  0 0.91188000E+02</rscale>
<asrwt>0</asrwt>
<pdfrwt beam="2">  1        1 0.58484622E-03 0.91188000E+02</pdfrwt>
<pdfrwt beam="1">  1       -1 0.84129244E-01 0.91188000E+02</pdfrwt>
<totfact> 0.44395639E+04</totfact>
</mgrwt>
</event>
<event>
 3      1 +4.2044000e+04 9.11880000e+01 7.54677100e-03 1.30000000e-01
       -2 -1    0    0    0  501 -0.0000000000e+00 +0.0000000000e+00 +1.0636983315e+02 1.0636983315e+02 0.0000000000e+00 0.0000e+00 1.0000e+00
        2 -1    0    0  501    0 +0.0000000000e+00 -0.0000000000e+00 -1.9543255587e+01 1.9543255587e+01 0.0000000000e+00 0.0000e+00 -1.0000e+00
       23  1    1    2    0    0 +0.0000000000e+00 -0.0000000000e+00 +8.6826577560e+01 1.2591308873e+02 9.1188000000e+01 0.0000e+00 1.0000e+00
<mgrwt>
<rscale>  0 0.91188000E+02</rscale>
<asrwt>0</asrwt>
<pdfrwt beam="2">  1        2 0.30066548E-02 0.91188000E+02</pdfrwt>
<pdfrwt beam="1">  1       -2 0.16364589E-01 0.91188000E+02</pdfrwt>
<totfact> 0.78307152E+04</totfact>
</mgrwt>
</event>
<event>
 3      1 +4.2044000e+04 9.11880000e+01 7.54677100e-03 1.30000000e-01
        1 -1    0    0  501    0 +0.0000000000e+00 +0.0000000000e+00 +7.6439597499e+01 7.6439597499e+01 0.0000000000e+00 0.0000e+00 -1.0000e+00
       -1 -1    0    0    0  501 -0.0000000000e+00 -0.0000000000e+00 -2.7195496889e+01 2.7195496889e+01 0.0000000000e+00 0.0000e+00 1.0000e+00
       23  1    1    2    0    0 +0.0000000000e+00 +0.0000000000e+00 +4.9244100610e+01 1.0363509439e+02 9.1188000000e+01 0.0000e+00 -1.0000e+00
<mgrwt>
<rscale>  0 0.91188000E+02</rscale>
<asrwt>0</asrwt>
<pdfrwt beam="1">  1        1 0.11759938E-01 0.91188000E+02</pdfrwt>
<pdfrwt beam="2">  1       -1 0.41839226E-02 0.91188000E+02</pdfrwt>
<totfact> 0.99992362E+04</totfact>
</mgrwt>
</event>
<event>
 3      1 +4.2044000e+04 9.11880000e+01 7.54677100e-03 1.30000000e-01
        2 -1    0    0  501    0 +0.0000000000e+00 +0.0000000000e+00 +6.1809231856e+02 6.1809231856e+02 0.0000000000e+00 0.0000e+00 -1.0000e+00
       -2 -1    0    0    0  501 -0.0000000000e+00 -0.0000000000e+00 -3.3632724006e+00 3.3632724006e+00 0.0000000000e+00 0.0000e+00 1.0000e+00
       23  1    1    2    0    0 +0.0000000000e+00 +0.0000000000e+00 +6.1472904616e+02 6.2145559096e+02 9.1188000000e+01 0.0000e+00 -1.0000e+00
<mgrwt>
<rscale>  0 0.91188000E+02</rscale>
<asrwt>0</asrwt>
<pdfrwt beam="1">  1        2 0.95091035E-01 0.91188000E+02</pdfrwt>
<pdfrwt beam="2">  1       -2 0.51742702E-03 0.91188000E+02</pdfrwt>
<totfact> 0.22967264E+05</totfact>
</mgrwt>
</event>
<event>
 3      1 +4.2044000e+04 9.11880000e+01 7.54677100e-03 1.30000000e-01
        2 -1    0    0  501    0 +0.0000000000e+00 +0.0000000000e+00 +1.1571198008e+01 1.1571198008e+01 0.0000000000e+00 0.0000e+00 -1.0000e+00
       -2 -1    0    0    0  501 -0.0000000000e+00 -0.0000000000e+00 -1.7965407165e+02 1.7965407165e+02 0.0000000000e+00 0.0000e+00 1.0000e+00
       23  1    1    2    0    0 +0.0000000000e+00 +0.0000000000e+00 -1.6808287364e+02 1.9122526966e+02 9.1188000000e+01 0.0000e+00 -1.0000e+00
<mgrwt>
<rscale>  0 0.91188000E+02</rscale>
<asrwt>0</asrwt>
<pdfrwt beam="1">  1        2 0.17801844E-02 0.91188000E+02</pdfrwt>
<pdfrwt beam="2">  1       -2 0.27639086E-01 0.91188000E+02</pdfrwt>
<totfact> 0.65164094E+04</totfact>
</mgrwt>
</event>
<event>
 3      1 +4.2044000e+04 9.11880000e+01 7.54677100e-03 1.30000000e-01
       -2 -1    0    0    0  501 -0.0000000000e+00 +0.0000000000e+00 +1.6160537339e+01 1.6160537339e+01 0.0000000000e+00 0.0000e+00 1.0000e+00
        2 -1    0    0  501    0 +0.0000000000e+00 -0.0000000000e+00 -1.2863513090e+02 1.2863513090e+02 0.0000000000e+00 0.0000e+00 -1.0000e+00
       23  1    1    2    0    0 +0.0000000000e+00 -0.0000000000e+00 -1.1247459356e+02 1.4479566823e+02 9.1188000000e+01 0.0000e+00 1.0000e+00
<mgrwt>
<rscale>  0 0.91188000E+02</rscale>
<asrwt>0</asrwt>
<pdfrwt beam="2">  1        2 0.19790020E-01 0.91188000E+02</pdfrwt>
<pdfrwt beam="1">  1       -2 0.24862366E-02 0.91188000E+02</pdfrwt>
<totfact> 0.13277614E+05</totfact>
</mgrwt>
</event>
<event>
 3      1 +4.2044000e+04 9.11880000e+01 7.54677100e-03 1.30000000e-01
        2 -1    0    0  501    0 +0.0000000000e+00 +0.0000000000e+00 +4.2415140996e+02 4.2415140996e+02 0.0000000000e+00 0.0000e+00 -1.0000e+00
       -2 -1    0    0    0  501 -0.0000000000e+00 -0.0000000000e+00 -4.9011102809e+00 4.9011102809e+00 0.0000000000e+00 0.0000e+00 1.0000e+00
       23  1    1    2    0    0 +0.0000000000e+00 +0.0000000000e+00 +4.1925029968e+02 4.2905252024e+02 9.1188000000e+01 0.0000e+00 -1.0000e+00
<mgrwt>
<rscale>  0 0.91188000E+02</rscale>
<asrwt>0</asrwt>
<pdfrwt beam="1">  1        2 0.65254034E-01 0.91188000E+02</pdfrwt>
<pdfrwt beam="2">  1       -2 0.75401730E-03 0.91188000E+02</pdfrwt>
<totfact> 0.20374808E+05</totfact>
</mgrwt>
</event>
<event>
 3      1 +4.2044000e+04 9.11880000e+01 7.54677100e-03 1.30000000e-01
       -1 -1    0    0    0  501 -0.0000000000e+00 +0.0000000000e+00 +1.6907416072e+02 1.6907416072e+02 0.0000000000e+00 0.0000e+00 1.0000e+00
        1 -1    0    0  501    0 +0.0000000000e+00 -0.0000000000e+00 -1.2295272247e+01 1.2295272247e+01 0.0000000000e+00 0.0000e+00 -1.0000e+00
       23  1    1    2    0    0 +0.0000000000e+00 -0.0000000000e+00 +1.5677888848e+02 1.8136943297e+02 9.1188000000e+01 0.0000e+00 1.0000e+00
<mgrwt>
<rscale>  0 0.91188000E+02</rscale>
<asrwt>0</asrwt>
<pdfrwt beam="2">  1        1 0.18915805E-02 0.91188000E+02</pdfrwt>
<pdfrwt beam="1">  1       -1 0.26011408E-01 0.91188000E+02</pdfrwt>
<totfact> 0.72615918E+04</totfact>
</mgrwt>
</event>
<event>
 3      1 +4.2044000e+04 9.11880000e+01 7.54677100e-03 1.30000000e-01
        3 -1    0    0  501    0 +0.0000000000e+00 +0.0000000000e+00 +1.8533349367e+02 1.8533349367e+02 0.0000000000e+00 0.0000e+00 -1.0000e+00
       -3 -1    0    0    0  501 -0.0000000000e+00 -0.0000000000e+00 -1.1216606318e+01 1.1216606318e+01 0.0000000000e+00 0.0000e+00 1.0000e+00
       23  1    1    2    0    0 +0.0000000000e+00 +0.0000000000e+00 +1.7411688735e+02 1.9655009998e+02 9.1188000000e+01 0.0000e+00 -1.0000e+00
<mgrwt>
<rscale>  0 0.91188000E+02</rscale>
<asrwt>0</asrwt>
<pdfrwt beam="1">  1        3 0.28512843E-01 0.91188000E+02</pdfrwt>
<pdfrwt beam="2">  1       -3 0.17256319E-02 0.91188000E+02</pdfrwt>
<totfact> 0.28668409E+04</totfact>
</mgrwt>
</event>
<event>
 3      1 +4.2044000e+04 9.11880000e+01 7.54677100e-03 1.30000000e-01
        1 -1    0    0  501    0 +0.0000000000e+00 +0.0000000000e+00 +2.8206594978e+01 2.8206594978e+01 0.0000000000e+00 0.0000e+00 -1.0000e+00
       -1 -1    0    0    0  501 -0.0000000000e+00 -0.0000000000e+00 -7.3699531533e+01 7.3699531533e+01 0.0000000000e+00 0.0000e+00 1.0000e+00
       23  1    1    2    0    0 +0.0000000000e+00 +0.0000000000e+00 -4.5492936555e+01 1.0190612651e+02 9.1188000000e+01 0.0000e+00 -1.0000e+00
<mgrwt>
<rscale>  0 0.91188000E+02</rscale>
<asrwt>0</asrwt>
<pdfrwt beam="1">  1        1 0.43394762E-02 0.91188000E+02</pdfrwt>
<pdfrwt beam="2">  1       -1 0.11338389E-01 0.91188000E+02</pdfrwt>
<totfact> 0.85788972E+04</totfact>
</mgrwt>
</event>
<event>
 3      1 +4.2044000e+04 9.11880000e+01 7.54677100e-03 1.30000000e-01
        1 -1    0    0  501    0 +0.0000000000e+00 +0.0000000000e+00 +1.1823038881e+01 1.1823038881e+01 0.0000000000e+00 0.0000e+00 -1.0000e+00
       -1 -1    0    0    0  501 -0.0000000000e+00 -0.0000000000e+00 -1.7582728577e+02 1.7582728577e+02 0.0000000000e+00 0.0000e+00 1.0000e+00
       23  1    1    2    0    0 +0.0000000000e+00 +0.0000000000e+00 -1.6400424689e+02 1.8765032465e+02 9.1188000000e+01 0.0000e+00 -1.0000e+00
<mgrwt>
<rscale>  0 0.91188000E+02</rscale>
<asrwt>0</asrwt>
<pdfrwt beam="1">  1        1 0.18189289E-02 0.91188000E+02</pdfrwt>
<pdfrwt beam="2">  1       -1 0.27050353E-01 0.91188000E+02</pdfrwt>
<totfact> 0.71888739E+04</totfact>
</mgrwt>
</event>
<event>
 3      1 +4.2044000e+04 9.11880000e+01 7.54677100e-03 1.30000000e-01
        2 -1    0    0  501    0 +0.0000000000e+00 +0.0000000000e+00 +1.7565311716e+02 1.7565311716e+02 0.0000000000e+00 0.0000e+00 -1.0000e+00
       -2 -1    0    0    0  501 -0.0000000000e+00 -0.0000000000e+00 -1.1834761999e+01 1.1834761999e+01 0.0000000000e+00 0.0000e+00 1.0000e+00
       23  1    1    2    0    0 +0.0000000000e+00 +0.0000000000e+00 +1.6381835516e+02 1.8748787916e+02 9.1188000000e+01 0.0000e+00 -1.0000e+00
<mgrwt>
<rscale>  0 0.91188000E+02</rscale>
<asrwt>0</asrwt>
<pdfrwt beam="1">  1        2 0.27023555E-01 0.91188000E+02</pdfrwt>
<pdfrwt beam="2">  1       -2 0.18207327E-02 0.91188000E+02</pdfrwt>
<totfact> 0.14761464E+05</totfact>
</mgrwt>
</event>
<event>
 3      1 +4.2044000e+04 9.11880000e+01 7.54677100e-03 1.30000000e-01
       -1 -1    0    0    0  501 -0.0000000000e+00 +0.0000000000e+00 +2.7682702689e+00 2.7682702689e+00 0.0000000000e+00 0.0000e+00 1.0000e+00
        1 -1    0    0  501    0 +0.0000000000e+00 -0.0000000000e+00 -7.5094287554e+02 7.5094287554e+02 0.0000000000e+00 0.0000e+00 -1.0000e+00
       23  1    1    2    0    0 +0.0000000000e+00 -0.0000000000e+00 -7.4817460528e+02 7.5371114581e+02 9.1188000000e+01 0.0000e+00 1.0000e+00
<mgrwt>
<rscale>  0 0.91188000E+02</rscale>
<asrwt>0</asrwt>
<pdfrwt beam="2">  1        1 0.11552964E+00 0.91188000E+02</pdfrwt>
<pdfrwt beam="1">  1       -1 0.42588784E-03 0.91188000E+02</pdfrwt>
<totfact> 0.14185272E+05</totfact>
</mgrwt>
</event>
<event>
 3      1 +4.2044000e+04 9.11880000e+01 7.54677100e-03 1.30000000e-01
       -1 -1    0    0    0  501 -0.0000000000e+00 +0.0000000000e+00 +3.8515267039e+01 3.8515267039e+01 0.0000000000e+00 0.0000e+00 1.0000e+00
        1 -1    0    0  501    0 +0.0000000000e+00 -0.0000000000e+00 -5.3973735503e+01 5.3973735503e+01 0.0000000000e+00 0.0000e+00 -1.0000e+00
       23  1    1    2    0    0 +0.0000000000e+00 -0.0000000000e+00 -1.5458468465e+01 9.2489002542e+01 9.1188000000e+01 0.0000e+00 1.0000e+00
<mgrwt>
<rscale>  0 0.91188000E+02</rscale>
<asrwt>0</asrwt>
<pdfrwt beam="2">  1        1 0.83036516E-02 0.91188000E+02</pdfrwt>
<pdfrwt beam="1">  1       -1 0.59254257E-02 0.91188000E+02</pdfrwt>
<totfact> 0.94814023E+04</totfact>
</mgrwt>
</event>
<event>
 3      1 +4.2044000e+04 9.11880000e+01 7.54677100e-03 1.30000000e-01
        2 -1    0    0  501    0 +0.0000000000e+00 +0.0000000000e+00 +6.5869483750e+02 6.5869483750e+02 0.0000000000e+00 0.0000e+00 -1.0000e+00
       -2 -1    0    0    0  501 -0.0000000000e+00 -0.0000000000e+00 -3.1559573837e+00 3.1559573837e+00 0.0000000000e+00 0.0000e+00 1.0000e+00
       23  1    1    2    0    0 +0.0000000000e+00 +0.0000000000e+00 +6.5553888011e+02 6.6185079488e+02 9.1188000000e+01 0.0000e+00 -1.0000e+00
<mgrwt>
<rscale>  0 0.91188000E+02</rscale>
<asrwt>0</asrwt>
<pdfrwt beam="1">  1        2 0.10133756E+00 0.91188000E+02</pdfrwt>
<pdfrwt beam="2">  1       -2 0.48553243E-03 0.91188000E+02</pdfrwt>
<totfact> 0.23357527E+05</totfact>
</mgrwt>
</event>
<event>
 3      1 +4.2044000e+04 9.11880000e+01 7.54677100e-03 1.30000000e-01
       -2 -1    0    0    0  501 -0.0000000000e+00 +0.0000000000e+00 +1.2453751510e+00 1.2453751510e+00 0.0000000000e+00 0.0000e+00 1.0000e+00
        2 -1    0    0  501    0 +0.0000000000e+00 -0.0000000000e+00 -1.6692262041e+03 1.6692262041e+03 0.0000000000e+00 0.0000e+00 -1.0000e+00
       23  1    1    2    0    0 +0.0000000000e+00 -0.0000000000e+00 -1.6679808289e+03 1.6704715792e+03 9.1188000000e+01 0.0000e+00 1.0000e+00
<mgrwt>
<rscale>  0 0.91188000E+02</rscale>
<asrwt>0</asrwt>
<pdfrwt beam="2">  1        2 0.25680548E+00 0.91188000E+02</pdfrwt>
<pdfrwt beam="1">  1       -2 0.19159510E-03 0.91188000E+02</pdfrwt>
<totfact> 0.22452970E+05</totfact>
</mgrwt>
</event>
</LesHouchesEvents>
